s -t 0.027064896 -Hs 41 -Hd -1 -Ni 41 -Nx 263.00 -Ny 382.00 -Nz 0.00 -Ne 50.000000 -Nl RTR -Nw --- -Ma 0 -Md 0 -Ms 0 -Mt 0 -Is 41.255 -Id -1.255 -It message -Il 32 -If 0 -Ii 0 -Iv 32 
s -t 0.027459896 -Hs 41 -Hd -1 -Ni 41 -Nx 263.00 -Ny 382.00 -Nz 0.00 -Ne 50.000000 -Nl MAC -Nw --- -Ma 0 -Md ffffffff -Ms 29 -Mt 800 -Is 41.255 -Id -1.255 -It message -Il 90 -If 0 -Ii 0 -Iv 32 
N -t 0.027460 -n 19 -e 49.983020
N -t 0.027460 -n 18 -e 49.983020
N -t 0.027460 -n 0 -e 49.983020
N -t 0.027460 -n 20 -e 49.983020
N -t 0.027460 -n 1 -e 49.983020
N -t 0.027460 -n 2 -e 49.983020
N -t 0.027460 -n 42 -e 49.983020
N -t 0.027460 -n 40 -e 49.983020
N -t 0.027460 -n 17 -e 49.983020
N -t 0.027460 -n 3 -e 49.983020
N -t 0.027460 -n 21 -e 49.983020
N -t 0.027460 -n 23 -e 49.983020
N -t 0.027461 -n 24 -e 49.983020
N -t 0.027461 -n 16 -e 49.983020
N -t 0.027461 -n 9 -e 49.983020
N -t 0.027461 -n 22 -e 49.983020
N -t 0.027461 -n 43 -e 49.983020
N -t 0.027461 -n 25 -e 49.983020
N -t 0.027461 -n 6 -e 49.983020
N -t 0.027461 -n 47 -e 49.983020
N -t 0.027461 -n 26 -e 49.983020
N -t 0.027461 -n 32 -e 49.983020
N -t 0.027461 -n 15 -e 49.983020
N -t 0.027461 -n 44 -e 49.983020
N -t 0.027461 -n 5 -e 49.983020
N -t 0.027461 -n 28 -e 49.983020
N -t 0.027461 -n 8 -e 49.983020
N -t 0.027461 -n 27 -e 49.983020
N -t 0.027461 -n 39 -e 49.983019
N -t 0.027461 -n 45 -e 49.983019
N -t 0.027461 -n 7 -e 49.983019
N -t 0.027461 -n 4 -e 49.983019
N -t 0.027461 -n 31 -e 49.983019
N -t 0.027461 -n 46 -e 49.983019
N -t 0.027461 -n 12 -e 49.983019
N -t 0.027461 -n 38 -e 49.983019
N -t 0.027461 -n 10 -e 49.983019
N -t 0.027461 -n 29 -e 49.983019
N -t 0.027461 -n 11 -e 49.983019
N -t 0.027461 -n 34 -e 49.983019
N -t 0.027461 -n 37 -e 49.983019
N -t 0.027461 -n 33 -e 49.983019
N -t 0.027461 -n 30 -e 49.983019
N -t 0.027461 -n 13 -e 49.983019
N -t 0.027461 -n 14 -e 49.983019
N -t 0.027461 -n 35 -e 49.983019
N -t 0.027462 -n 36 -e 49.983019
r -t 0.028180100 -Hs 19 -Hd -1 -Ni 19 -Nx 321.00 -Ny 401.00 -Nz 0.00 -Ne 49.983020 -Nl MAC -Nw --- -Ma 0 -Md ffffffff -Ms 29 -Mt 800 -Is 41.255 -Id -1.255 -It message -Il 32 -If 0 -Ii 0 -Iv 32 
r -t 0.028180129 -Hs 18 -Hd -1 -Ni 18 -Nx 327.00 -Ny 354.00 -Nz 0.00 -Ne 49.983020 -Nl MAC -Nw --- -Ma 0 -Md ffffffff -Ms 29 -Mt 800 -Is 41.255 -Id -1.255 -It message -Il 32 -If 0 -Ii 0 -Iv 32 
r -t 0.028180153 -Hs 0 -Hd -1 -Ni 0 -Nx 187.00 -Ny 370.00 -Nz 0.00 -Ne 49.983020 -Nl MAC -Nw --- -Ma 0 -Md ffffffff -Ms 29 -Mt 800 -Is 41.255 -Id -1.255 -It message -Il 32 -If 0 -Ii 0 -Iv 32 
r -t 0.028180239 -Hs 20 -Hd -1 -Ni 20 -Nx 297.00 -Ny 285.00 -Nz 0.00 -Ne 49.983020 -Nl MAC -Nw --- -Ma 0 -Md ffffffff -Ms 29 -Mt 800 -Is 41.255 -Id -1.255 -It message -Il 32 -If 0 -Ii 0 -Iv 32 
r -t 0.028180249 -Hs 1 -Hd -1 -Ni 1 -Nx 214.00 -Ny 288.00 -Nz 0.00 -Ne 49.983020 -Nl MAC -Nw --- -Ma 0 -Md ffffffff -Ms 29 -Mt 800 -Is 41.255 -Id -1.255 -It message -Il 32 -If 0 -Ii 0 -Iv 32 
r -t 0.028180289 -Hs 2 -Hd -1 -Ni 2 -Nx 283.00 -Ny 266.00 -Nz 0.00 -Ne 49.983020 -Nl MAC -Nw --- -Ma 0 -Md ffffffff -Ms 29 -Mt 800 -Is 41.255 -Id -1.255 -It message -Il 32 -If 0 -Ii 0 -Iv 32 
r -t 0.028180323 -Hs 42 -Hd -1 -Ni 42 -Nx 173.00 -Ny 291.00 -Nz 0.00 -Ne 49.983020 -Nl MAC -Nw --- -Ma 0 -Md ffffffff -Ms 29 -Mt 800 -Is 41.255 -Id -1.255 -It message -Il 32 -If 0 -Ii 0 -Iv 32 
r -t 0.028180333 -Hs 40 -Hd -1 -Ni 40 -Nx 387.00 -Ny 424.00 -Nz 0.00 -Ne 49.983020 -Nl MAC -Nw --- -Ma 0 -Md ffffffff -Ms 29 -Mt 800 -Is 41.255 -Id -1.255 -It message -Il 32 -If 0 -Ii 0 -Iv 32 
r -t 0.028180339 -Hs 17 -Hd -1 -Ni 17 -Nx 395.00 -Ny 366.00 -Nz 0.00 -Ne 49.983020 -Nl MAC -Nw --- -Ma 0 -Md ffffffff -Ms 29 -Mt 800 -Is 41.255 -Id -1.255 -It message -Il 32 -If 0 -Ii 0 -Iv 32 
r -t 0.028180348 -Hs 3 -Hd -1 -Ni 3 -Nx 381.00 -Ny 315.00 -Nz 0.00 -Ne 49.983020 -Nl MAC -Nw --- -Ma 0 -Md ffffffff -Ms 29 -Mt 800 -Is 41.255 -Id -1.255 -It message -Il 32 -If 0 -Ii 0 -Iv 32 
r -t 0.028180403 -Hs 21 -Hd -1 -Ni 21 -Nx 342.00 -Ny 252.00 -Nz 0.00 -Ne 49.983020 -Nl MAC -Nw --- -Ma 0 -Md ffffffff -Ms 29 -Mt 800 -Is 41.255 -Id -1.255 -It message -Il 32 -If 0 -Ii 0 -Iv 32 
r -t 0.028180447 -Hs 23 -Hd -1 -Ni 23 -Nx 270.00 -Ny 217.00 -Nz 0.00 -Ne 49.983020 -Nl MAC -Nw --- -Ma 0 -Md ffffffff -Ms 29 -Mt 800 -Is 41.255 -Id -1.255 -It message -Il 32 -If 0 -Ii 0 -Iv 32 
r -t 0.028180505 -Hs 24 -Hd -1 -Ni 24 -Nx 185.00 -Ny 217.00 -Nz 0.00 -Ne 49.983020 -Nl MAC -Nw --- -Ma 0 -Md ffffffff -Ms 29 -Mt 800 -Is 41.255 -Id -1.255 -It message -Il 32 -If 0 -Ii 0 -Iv 32 
r -t 0.028180548 -Hs 16 -Hd -1 -Ni 16 -Nx 458.00 -Ny 397.00 -Nz 0.00 -Ne 49.983020 -Nl MAC -Nw --- -Ma 0 -Md ffffffff -Ms 29 -Mt 800 -Is 41.255 -Id -1.255 -It message -Il 32 -If 0 -Ii 0 -Iv 32 
r -t 0.028180553 -Hs 9 -Hd -1 -Ni 9 -Nx 446.00 -Ny 309.00 -Nz 0.00 -Ne 49.983020 -Nl MAC -Nw --- -Ma 0 -Md ffffffff -Ms 29 -Mt 800 -Is 41.255 -Id -1.255 -It message -Il 32 -If 0 -Ii 0 -Iv 32 
r -t 0.028180576 -Hs 22 -Hd -1 -Ni 22 -Nx 257.00 -Ny 178.00 -Nz 0.00 -Ne 49.983020 -Nl MAC -Nw --- -Ma 0 -Md ffffffff -Ms 29 -Mt 800 -Is 41.255 -Id -1.255 -It message -Il 32 -If 0 -Ii 0 -Iv 32 
r -t 0.028180609 -Hs 43 -Hd -1 -Ni 43 -Nx 173.00 -Ny 188.00 -Nz 0.00 -Ne 49.983020 -Nl MAC -Nw --- -Ma 0 -Md ffffffff -Ms 29 -Mt 800 -Is 41.255 -Id -1.255 -It message -Il 32 -If 0 -Ii 0 -Iv 32 
r -t 0.028180651 -Hs 25 -Hd -1 -Ni 25 -Nx 209.00 -Ny 162.00 -Nz 0.00 -Ne 49.983020 -Nl MAC -Nw --- -Ma 0 -Md ffffffff -Ms 29 -Mt 800 -Is 41.255 -Id -1.255 -It message -Il 32 -If 0 -Ii 0 -Iv 32 
r -t 0.028180664 -Hs 6 -Hd -1 -Ni 6 -Nx 325.00 -Ny 160.00 -Nz 0.00 -Ne 49.983020 -Nl MAC -Nw --- -Ma 0 -Md ffffffff -Ms 29 -Mt 800 -Is 41.255 -Id -1.255 -It message -Il 32 -If 0 -Ii 0 -Iv 32 
r -t 0.028180682 -Hs 47 -Hd -1 -Ni 47 -Nx 337.00 -Ny 158.00 -Nz 0.00 -Ne 49.983020 -Nl MAC -Nw --- -Ma 0 -Md ffffffff -Ms 29 -Mt 800 -Is 41.255 -Id -1.255 -It message -Il 32 -If 0 -Ii 0 -Iv 32 
r -t 0.028205100 -Hs 19 -Hd -1 -Ni 19 -Nx 321.00 -Ny 401.00 -Nz 0.00 -Ne 49.983020 -Nl RTR -Nw --- -Ma 0 -Md ffffffff -Ms 29 -Mt 800 -Is 41.255 -Id -1.255 -It message -Il 32 -If 0 -Ii 0 -Iv 32 
r -t 0.028205129 -Hs 18 -Hd -1 -Ni 18 -Nx 327.00 -Ny 354.00 -Nz 0.00 -Ne 49.983020 -Nl RTR -Nw --- -Ma 0 -Md ffffffff -Ms 29 -Mt 800 -Is 41.255 -Id -1.255 -It message -Il 32 -If 0 -Ii 0 -Iv 32 
r -t 0.028205153 -Hs 0 -Hd -1 -Ni 0 -Nx 187.00 -Ny 370.00 -Nz 0.00 -Ne 49.983020 -Nl RTR -Nw --- -Ma 0 -Md ffffffff -Ms 29 -Mt 800 -Is 41.255 -Id -1.255 -It message -Il 32 -If 0 -Ii 0 -Iv 32 
r -t 0.028205239 -Hs 20 -Hd -1 -Ni 20 -Nx 297.00 -Ny 285.00 -Nz 0.00 -Ne 49.983020 -Nl RTR -Nw --- -Ma 0 -Md ffffffff -Ms 29 -Mt 800 -Is 41.255 -Id -1.255 -It message -Il 32 -If 0 -Ii 0 -Iv 32 
r -t 0.028205249 -Hs 1 -Hd -1 -Ni 1 -Nx 214.00 -Ny 288.00 -Nz 0.00 -Ne 49.983020 -Nl RTR -Nw --- -Ma 0 -Md ffffffff -Ms 29 -Mt 800 -Is 41.255 -Id -1.255 -It message -Il 32 -If 0 -Ii 0 -Iv 32 
r -t 0.028205289 -Hs 2 -Hd -1 -Ni 2 -Nx 283.00 -Ny 266.00 -Nz 0.00 -Ne 49.983020 -Nl RTR -Nw --- -Ma 0 -Md ffffffff -Ms 29 -Mt 800 -Is 41.255 -Id -1.255 -It message -Il 32 -If 0 -Ii 0 -Iv 32 
r -t 0.028205323 -Hs 42 -Hd -1 -Ni 42 -Nx 173.00 -Ny 291.00 -Nz 0.00 -Ne 49.983020 -Nl RTR -Nw --- -Ma 0 -Md ffffffff -Ms 29 -Mt 800 -Is 41.255 -Id -1.255 -It message -Il 32 -If 0 -Ii 0 -Iv 32 
r -t 0.028205333 -Hs 40 -Hd -1 -Ni 40 -Nx 387.00 -Ny 424.00 -Nz 0.00 -Ne 49.983020 -Nl RTR -Nw --- -Ma 0 -Md ffffffff -Ms 29 -Mt 800 -Is 41.255 -Id -1.255 -It message -Il 32 -If 0 -Ii 0 -Iv 32 
r -t 0.028205339 -Hs 17 -Hd -1 -Ni 17 -Nx 395.00 -Ny 366.00 -Nz 0.00 -Ne 49.983020 -Nl RTR -Nw --- -Ma 0 -Md ffffffff -Ms 29 -Mt 800 -Is 41.255 -Id -1.255 -It message -Il 32 -If 0 -Ii 0 -Iv 32 
r -t 0.028205348 -Hs 3 -Hd -1 -Ni 3 -Nx 381.00 -Ny 315.00 -Nz 0.00 -Ne 49.983020 -Nl RTR -Nw --- -Ma 0 -Md ffffffff -Ms 29 -Mt 800 -Is 41.255 -Id -1.255 -It message -Il 32 -If 0 -Ii 0 -Iv 32 
r -t 0.028205403 -Hs 21 -Hd -1 -Ni 21 -Nx 342.00 -Ny 252.00 -Nz 0.00 -Ne 49.983020 -Nl RTR -Nw --- -Ma 0 -Md ffffffff -Ms 29 -Mt 800 -Is 41.255 -Id -1.255 -It message -Il 32 -If 0 -Ii 0 -Iv 32 
r -t 0.028205447 -Hs 23 -Hd -1 -Ni 23 -Nx 270.00 -Ny 217.00 -Nz 0.00 -Ne 49.983020 -Nl RTR -Nw --- -Ma 0 -Md ffffffff -Ms 29 -Mt 800 -Is 41.255 -Id -1.255 -It message -Il 32 -If 0 -Ii 0 -Iv 32 
r -t 0.028205505 -Hs 24 -Hd -1 -Ni 24 -Nx 185.00 -Ny 217.00 -Nz 0.00 -Ne 49.983020 -Nl RTR -Nw --- -Ma 0 -Md ffffffff -Ms 29 -Mt 800 -Is 41.255 -Id -1.255 -It message -Il 32 -If 0 -Ii 0 -Iv 32 
r -t 0.028205548 -Hs 16 -Hd -1 -Ni 16 -Nx 458.00 -Ny 397.00 -Nz 0.00 -Ne 49.983020 -Nl RTR -Nw --- -Ma 0 -Md ffffffff -Ms 29 -Mt 800 -Is 41.255 -Id -1.255 -It message -Il 32 -If 0 -Ii 0 -Iv 32 
r -t 0.028205553 -Hs 9 -Hd -1 -Ni 9 -Nx 446.00 -Ny 309.00 -Nz 0.00 -Ne 49.983020 -Nl RTR -Nw --- -Ma 0 -Md ffffffff -Ms 29 -Mt 800 -Is 41.255 -Id -1.255 -It message -Il 32 -If 0 -Ii 0 -Iv 32 
r -t 0.028205576 -Hs 22 -Hd -1 -Ni 22 -Nx 257.00 -Ny 178.00 -Nz 0.00 -Ne 49.983020 -Nl RTR -Nw --- -Ma 0 -Md ffffffff -Ms 29 -Mt 800 -Is 41.255 -Id -1.255 -It message -Il 32 -If 0 -Ii 0 -Iv 32 
r -t 0.028205609 -Hs 43 -Hd -1 -Ni 43 -Nx 173.00 -Ny 188.00 -Nz 0.00 -Ne 49.983020 -Nl RTR -Nw --- -Ma 0 -Md ffffffff -Ms 29 -Mt 800 -Is 41.255 -Id -1.255 -It message -Il 32 -If 0 -Ii 0 -Iv 32 
r -t 0.028205651 -Hs 25 -Hd -1 -Ni 25 -Nx 209.00 -Ny 162.00 -Nz 0.00 -Ne 49.983020 -Nl RTR -Nw --- -Ma 0 -Md ffffffff -Ms 29 -Mt 800 -Is 41.255 -Id -1.255 -It message -Il 32 -If 0 -Ii 0 -Iv 32 
r -t 0.028205664 -Hs 6 -Hd -1 -Ni 6 -Nx 325.00 -Ny 160.00 -Nz 0.00 -Ne 49.983020 -Nl RTR -Nw --- -Ma 0 -Md ffffffff -Ms 29 -Mt 800 -Is 41.255 -Id -1.255 -It message -Il 32 -If 0 -Ii 0 -Iv 32 
r -t 0.028205682 -Hs 47 -Hd -1 -Ni 47 -Nx 337.00 -Ny 158.00 -Nz 0.00 -Ne 49.983020 -Nl RTR -Nw --- -Ma 0 -Md ffffffff -Ms 29 -Mt 800 -Is 41.255 -Id -1.255 -It message -Il 32 -If 0 -Ii 0 -Iv 32 
s -t 0.089845988 -Hs 10 -Hd -1 -Ni 10 -Nx 607.00 -Ny 273.00 -Nz 0.00 -Ne 49.983019 -Nl RTR -Nw --- -Ma 0 -Md 0 -Ms 0 -Mt 0 -Is 10.255 -Id -1.255 -It message -Il 32 -If 0 -Ii 1 -Iv 32 
s -t 0.090220988 -Hs 10 -Hd -1 -Ni 10 -Nx 607.00 -Ny 273.00 -Nz 0.00 -Ne 49.983019 -Nl MAC -Nw --- -Ma 0 -Md ffffffff -Ms a -Mt 800 -Is 10.255 -Id -1.255 -It message -Il 90 -If 0 -Ii 1 -Iv 32 
N -t 0.090221 -n 37 -e 49.945291
N -t 0.090221 -n 38 -e 49.945291
N -t 0.090221 -n 31 -e 49.945291
N -t 0.090221 -n 33 -e 49.945291
N -t 0.090221 -n 14 -e 49.945291
N -t 0.090221 -n 32 -e 49.945291
N -t 0.090221 -n 34 -e 49.945291
N -t 0.090221 -n 36 -e 49.945291
N -t 0.090221 -n 8 -e 49.945291
N -t 0.090221 -n 5 -e 49.945291
N -t 0.090221 -n 15 -e 49.945291
N -t 0.090222 -n 7 -e 49.945291
N -t 0.090222 -n 9 -e 49.945291
N -t 0.090222 -n 11 -e 49.945291
N -t 0.090222 -n 39 -e 49.945291
N -t 0.090222 -n 35 -e 49.945291
N -t 0.090222 -n 30 -e 49.945291
N -t 0.090222 -n 16 -e 49.945291
N -t 0.090222 -n 29 -e 49.945291
N -t 0.090222 -n 12 -e 49.945291
N -t 0.090222 -n 28 -e 49.945291
N -t 0.090222 -n 3 -e 49.945291
N -t 0.090222 -n 17 -e 49.945291
N -t 0.090222 -n 21 -e 49.945291
N -t 0.090222 -n 40 -e 49.945291
N -t 0.090222 -n 13 -e 49.945291
N -t 0.090222 -n 4 -e 49.945291
N -t 0.090222 -n 18 -e 49.945291
N -t 0.090222 -n 47 -e 49.945291
N -t 0.090222 -n 6 -e 49.945291
N -t 0.090222 -n 20 -e 49.945291
N -t 0.090222 -n 19 -e 49.945291
N -t 0.090222 -n 27 -e 49.945291
N -t 0.090222 -n 46 -e 49.945291
N -t 0.090222 -n 2 -e 49.945291
N -t 0.090222 -n 23 -e 49.945291
N -t 0.090222 -n 41 -e 49.945147
N -t 0.090222 -n 45 -e 49.945291
N -t 0.090222 -n 22 -e 49.945291
N -t 0.090222 -n 26 -e 49.945291
N -t 0.090222 -n 1 -e 49.945291
N -t 0.090222 -n 25 -e 49.945291
N -t 0.090222 -n 44 -e 49.945291
N -t 0.090222 -n 24 -e 49.945291
N -t 0.090222 -n 0 -e 49.945291
N -t 0.090222 -n 42 -e 49.945291
N -t 0.090222 -n 43 -e 49.945291
r -t 0.090941151 -Hs 37 -Hd -1 -Ni 37 -Nx 651.00 -Ny 294.00 -Nz 0.00 -Ne 49.945291 -Nl MAC -Nw --- -Ma 0 -Md ffffffff -Ms a -Mt 800 -Is 10.255 -Id -1.255 -It message -Il 32 -If 0 -Ii 1 -Iv 32 
r -t 0.090941182 -Hs 38 -Hd -1 -Ni 38 -Nx 612.00 -Ny 331.00 -Nz 0.00 -Ne 49.945291 -Nl MAC -Nw --- -Ma 0 -Md ffffffff -Ms a -Mt 800 -Is 10.255 -Id -1.255 -It message -Il 32 -If 0 -Ii 1 -Iv 32 
r -t 0.090941231 -Hs 31 -Hd -1 -Ni 31 -Nx 541.00 -Ny 242.00 -Nz 0.00 -Ne 49.945291 -Nl MAC -Nw --- -Ma 0 -Md ffffffff -Ms a -Mt 800 -Is 10.255 -Id -1.255 -It message -Il 32 -If 0 -Ii 1 -Iv 32 
r -t 0.090941300 -Hs 33 -Hd -1 -Ni 33 -Nx 623.00 -Ny 181.00 -Nz 0.00 -Ne 49.945291 -Nl MAC -Nw --- -Ma 0 -Md ffffffff -Ms a -Mt 800 -Is 10.255 -Id -1.255 -It message -Il 32 -If 0 -Ii 1 -Iv 32 
r -t 0.090941300 -Hs 14 -Hd -1 -Ni 14 -Nx 663.00 -Ny 198.00 -Nz 0.00 -Ne 49.945291 -Nl MAC -Nw --- -Ma 0 -Md ffffffff -Ms a -Mt 800 -Is 10.255 -Id -1.255 -It message -Il 32 -If 0 -Ii 1 -Iv 32 
r -t 0.090941331 -Hs 32 -Hd -1 -Ni 32 -Nx 513.00 -Ny 315.00 -Nz 0.00 -Ne 49.945291 -Nl MAC -Nw --- -Ma 0 -Md ffffffff -Ms a -Mt 800 -Is 10.255 -Id -1.255 -It message -Il 32 -If 0 -Ii 1 -Iv 32 
r -t 0.090941337 -Hs 34 -Hd -1 -Ni 34 -Nx 573.00 -Ny 174.00 -Nz 0.00 -Ne 49.945291 -Nl MAC -Nw --- -Ma 0 -Md ffffffff -Ms a -Mt 800 -Is 10.255 -Id -1.255 -It message -Il 32 -If 0 -Ii 1 -Iv 32 
r -t 0.090941429 -Hs 36 -Hd -1 -Ni 36 -Nx 701.00 -Ny 180.00 -Nz 0.00 -Ne 49.945291 -Nl MAC -Nw --- -Ma 0 -Md ffffffff -Ms a -Mt 800 -Is 10.255 -Id -1.255 -It message -Il 32 -If 0 -Ii 1 -Iv 32 
r -t 0.090941430 -Hs 8 -Hd -1 -Ni 8 -Nx 536.00 -Ny 385.00 -Nz 0.00 -Ne 49.945291 -Nl MAC -Nw --- -Ma 0 -Md ffffffff -Ms a -Mt 800 -Is 10.255 -Id -1.255 -It message -Il 32 -If 0 -Ii 1 -Iv 32 
r -t 0.090941440 -Hs 5 -Hd -1 -Ni 5 -Nx 480.00 -Ny 226.00 -Nz 0.00 -Ne 49.945291 -Nl MAC -Nw --- -Ma 0 -Md ffffffff -Ms a -Mt 800 -Is 10.255 -Id -1.255 -It message -Il 32 -If 0 -Ii 1 -Iv 32 
r -t 0.090941498 -Hs 15 -Hd -1 -Ni 15 -Nx 522.00 -Ny 400.00 -Nz 0.00 -Ne 49.945291 -Nl MAC -Nw --- -Ma 0 -Md ffffffff -Ms a -Mt 800 -Is 10.255 -Id -1.255 -It message -Il 32 -If 0 -Ii 1 -Iv 32 
r -t 0.090941506 -Hs 7 -Hd -1 -Ni 7 -Nx 489.00 -Ny 172.00 -Nz 0.00 -Ne 49.945291 -Nl MAC -Nw --- -Ma 0 -Md ffffffff -Ms a -Mt 800 -Is 10.255 -Id -1.255 -It message -Il 32 -If 0 -Ii 1 -Iv 32 
r -t 0.090941538 -Hs 9 -Hd -1 -Ni 9 -Nx 446.00 -Ny 309.00 -Nz 0.00 -Ne 49.945291 -Nl MAC -Nw --- -Ma 0 -Md ffffffff -Ms a -Mt 800 -Is 10.255 -Id -1.255 -It message -Il 32 -If 0 -Ii 1 -Iv 32 
r -t 0.090941552 -Hs 11 -Hd -1 -Ni 11 -Nx 525.00 -Ny 125.00 -Nz 0.00 -Ne 49.945291 -Nl MAC -Nw --- -Ma 0 -Md ffffffff -Ms a -Mt 800 -Is 10.255 -Id -1.255 -It message -Il 32 -If 0 -Ii 1 -Iv 32 
r -t 0.090941561 -Hs 39 -Hd -1 -Ni 39 -Nx 547.00 -Ny 434.00 -Nz 0.00 -Ne 49.945291 -Nl MAC -Nw --- -Ma 0 -Md ffffffff -Ms a -Mt 800 -Is 10.255 -Id -1.255 -It message -Il 32 -If 0 -Ii 1 -Iv 32 
r -t 0.090941566 -Hs 35 -Hd -1 -Ni 35 -Nx 616.00 -Ny 100.00 -Nz 0.00 -Ne 49.945291 -Nl MAC -Nw --- -Ma 0 -Md ffffffff -Ms a -Mt 800 -Is 10.255 -Id -1.255 -It message -Il 32 -If 0 -Ii 1 -Iv 32 
r -t 0.090941606 -Hs 30 -Hd -1 -Ni 30 -Nx 563.00 -Ny 93.00 -Nz 0.00 -Ne 49.945291 -Nl MAC -Nw --- -Ma 0 -Md ffffffff -Ms a -Mt 800 -Is 10.255 -Id -1.255 -It message -Il 32 -If 0 -Ii 1 -Iv 32 
r -t 0.090941634 -Hs 16 -Hd -1 -Ni 16 -Nx 458.00 -Ny 397.00 -Nz 0.00 -Ne 49.945291 -Nl MAC -Nw --- -Ma 0 -Md ffffffff -Ms a -Mt 800 -Is 10.255 -Id -1.255 -It message -Il 32 -If 0 -Ii 1 -Iv 32 
r -t 0.090941690 -Hs 29 -Hd -1 -Ni 29 -Nx 490.00 -Ny 98.00 -Nz 0.00 -Ne 49.945291 -Nl MAC -Nw --- -Ma 0 -Md ffffffff -Ms a -Mt 800 -Is 10.255 -Id -1.255 -It message -Il 32 -If 0 -Ii 1 -Iv 32 
r -t 0.090941730 -Hs 12 -Hd -1 -Ni 12 -Nx 459.00 -Ny 107.00 -Nz 0.00 -Ne 49.945291 -Nl MAC -Nw --- -Ma 0 -Md ffffffff -Ms a -Mt 800 -Is 10.255 -Id -1.255 -It message -Il 32 -If 0 -Ii 1 -Iv 32 
r -t 0.090941754 -Hs 28 -Hd -1 -Ni 28 -Nx 411.00 -Ny 153.00 -Nz 0.00 -Ne 49.945291 -Nl MAC -Nw --- -Ma 0 -Md ffffffff -Ms a -Mt 800 -Is 10.255 -Id -1.255 -It message -Il 32 -If 0 -Ii 1 -Iv 32 
r -t 0.090941754 -Hs 3 -Hd -1 -Ni 3 -Nx 381.00 -Ny 315.00 -Nz 0.00 -Ne 49.945291 -Nl MAC -Nw --- -Ma 0 -Md ffffffff -Ms a -Mt 800 -Is 10.255 -Id -1.255 -It message -Il 32 -If 0 -Ii 1 -Iv 32 
r -t 0.090941760 -Hs 17 -Hd -1 -Ni 17 -Nx 395.00 -Ny 366.00 -Nz 0.00 -Ne 49.945291 -Nl MAC -Nw --- -Ma 0 -Md ffffffff -Ms a -Mt 800 -Is 10.255 -Id -1.255 -It message -Il 32 -If 0 -Ii 1 -Iv 32 
r -t 0.090966151 -Hs 37 -Hd -1 -Ni 37 -Nx 651.00 -Ny 294.00 -Nz 0.00 -Ne 49.945291 -Nl RTR -Nw --- -Ma 0 -Md ffffffff -Ms a -Mt 800 -Is 10.255 -Id -1.255 -It message -Il 32 -If 0 -Ii 1 -Iv 32 
r -t 0.090966182 -Hs 38 -Hd -1 -Ni 38 -Nx 612.00 -Ny 331.00 -Nz 0.00 -Ne 49.945291 -Nl RTR -Nw --- -Ma 0 -Md ffffffff -Ms a -Mt 800 -Is 10.255 -Id -1.255 -It message -Il 32 -If 0 -Ii 1 -Iv 32 
r -t 0.090966231 -Hs 31 -Hd -1 -Ni 31 -Nx 541.00 -Ny 242.00 -Nz 0.00 -Ne 49.945291 -Nl RTR -Nw --- -Ma 0 -Md ffffffff -Ms a -Mt 800 -Is 10.255 -Id -1.255 -It message -Il 32 -If 0 -Ii 1 -Iv 32 
r -t 0.090966300 -Hs 33 -Hd -1 -Ni 33 -Nx 623.00 -Ny 181.00 -Nz 0.00 -Ne 49.945291 -Nl RTR -Nw --- -Ma 0 -Md ffffffff -Ms a -Mt 800 -Is 10.255 -Id -1.255 -It message -Il 32 -If 0 -Ii 1 -Iv 32 
r -t 0.090966300 -Hs 14 -Hd -1 -Ni 14 -Nx 663.00 -Ny 198.00 -Nz 0.00 -Ne 49.945291 -Nl RTR -Nw --- -Ma 0 -Md ffffffff -Ms a -Mt 800 -Is 10.255 -Id -1.255 -It message -Il 32 -If 0 -Ii 1 -Iv 32 
r -t 0.090966331 -Hs 32 -Hd -1 -Ni 32 -Nx 513.00 -Ny 315.00 -Nz 0.00 -Ne 49.945291 -Nl RTR -Nw --- -Ma 0 -Md ffffffff -Ms a -Mt 800 -Is 10.255 -Id -1.255 -It message -Il 32 -If 0 -Ii 1 -Iv 32 
r -t 0.090966337 -Hs 34 -Hd -1 -Ni 34 -Nx 573.00 -Ny 174.00 -Nz 0.00 -Ne 49.945291 -Nl RTR -Nw --- -Ma 0 -Md ffffffff -Ms a -Mt 800 -Is 10.255 -Id -1.255 -It message -Il 32 -If 0 -Ii 1 -Iv 32 
r -t 0.090966429 -Hs 36 -Hd -1 -Ni 36 -Nx 701.00 -Ny 180.00 -Nz 0.00 -Ne 49.945291 -Nl RTR -Nw --- -Ma 0 -Md ffffffff -Ms a -Mt 800 -Is 10.255 -Id -1.255 -It message -Il 32 -If 0 -Ii 1 -Iv 32 
r -t 0.090966430 -Hs 8 -Hd -1 -Ni 8 -Nx 536.00 -Ny 385.00 -Nz 0.00 -Ne 49.945291 -Nl RTR -Nw --- -Ma 0 -Md ffffffff -Ms a -Mt 800 -Is 10.255 -Id -1.255 -It message -Il 32 -If 0 -Ii 1 -Iv 32 
r -t 0.090966440 -Hs 5 -Hd -1 -Ni 5 -Nx 480.00 -Ny 226.00 -Nz 0.00 -Ne 49.945291 -Nl RTR -Nw --- -Ma 0 -Md ffffffff -Ms a -Mt 800 -Is 10.255 -Id -1.255 -It message -Il 32 -If 0 -Ii 1 -Iv 32 
r -t 0.090966498 -Hs 15 -Hd -1 -Ni 15 -Nx 522.00 -Ny 400.00 -Nz 0.00 -Ne 49.945291 -Nl RTR -Nw --- -Ma 0 -Md ffffffff -Ms a -Mt 800 -Is 10.255 -Id -1.255 -It message -Il 32 -If 0 -Ii 1 -Iv 32 
r -t 0.090966506 -Hs 7 -Hd -1 -Ni 7 -Nx 489.00 -Ny 172.00 -Nz 0.00 -Ne 49.945291 -Nl RTR -Nw --- -Ma 0 -Md ffffffff -Ms a -Mt 800 -Is 10.255 -Id -1.255 -It message -Il 32 -If 0 -Ii 1 -Iv 32 
r -t 0.090966538 -Hs 9 -Hd -1 -Ni 9 -Nx 446.00 -Ny 309.00 -Nz 0.00 -Ne 49.945291 -Nl RTR -Nw --- -Ma 0 -Md ffffffff -Ms a -Mt 800 -Is 10.255 -Id -1.255 -It message -Il 32 -If 0 -Ii 1 -Iv 32 
r -t 0.090966552 -Hs 11 -Hd -1 -Ni 11 -Nx 525.00 -Ny 125.00 -Nz 0.00 -Ne 49.945291 -Nl RTR -Nw --- -Ma 0 -Md ffffffff -Ms a -Mt 800 -Is 10.255 -Id -1.255 -It message -Il 32 -If 0 -Ii 1 -Iv 32 
r -t 0.090966561 -Hs 39 -Hd -1 -Ni 39 -Nx 547.00 -Ny 434.00 -Nz 0.00 -Ne 49.945291 -Nl RTR -Nw --- -Ma 0 -Md ffffffff -Ms a -Mt 800 -Is 10.255 -Id -1.255 -It message -Il 32 -If 0 -Ii 1 -Iv 32 
r -t 0.090966566 -Hs 35 -Hd -1 -Ni 35 -Nx 616.00 -Ny 100.00 -Nz 0.00 -Ne 49.945291 -Nl RTR -Nw --- -Ma 0 -Md ffffffff -Ms a -Mt 800 -Is 10.255 -Id -1.255 -It message -Il 32 -If 0 -Ii 1 -Iv 32 
r -t 0.090966606 -Hs 30 -Hd -1 -Ni 30 -Nx 563.00 -Ny 93.00 -Nz 0.00 -Ne 49.945291 -Nl RTR -Nw --- -Ma 0 -Md ffffffff -Ms a -Mt 800 -Is 10.255 -Id -1.255 -It message -Il 32 -If 0 -Ii 1 -Iv 32 
r -t 0.090966634 -Hs 16 -Hd -1 -Ni 16 -Nx 458.00 -Ny 397.00 -Nz 0.00 -Ne 49.945291 -Nl RTR -Nw --- -Ma 0 -Md ffffffff -Ms a -Mt 800 -Is 10.255 -Id -1.255 -It message -Il 32 -If 0 -Ii 1 -Iv 32 
r -t 0.090966690 -Hs 29 -Hd -1 -Ni 29 -Nx 490.00 -Ny 98.00 -Nz 0.00 -Ne 49.945291 -Nl RTR -Nw --- -Ma 0 -Md ffffffff -Ms a -Mt 800 -Is 10.255 -Id -1.255 -It message -Il 32 -If 0 -Ii 1 -Iv 32 
r -t 0.090966730 -Hs 12 -Hd -1 -Ni 12 -Nx 459.00 -Ny 107.00 -Nz 0.00 -Ne 49.945291 -Nl RTR -Nw --- -Ma 0 -Md ffffffff -Ms a -Mt 800 -Is 10.255 -Id -1.255 -It message -Il 32 -If 0 -Ii 1 -Iv 32 
r -t 0.090966754 -Hs 28 -Hd -1 -Ni 28 -Nx 411.00 -Ny 153.00 -Nz 0.00 -Ne 49.945291 -Nl RTR -Nw --- -Ma 0 -Md ffffffff -Ms a -Mt 800 -Is 10.255 -Id -1.255 -It message -Il 32 -If 0 -Ii 1 -Iv 32 
r -t 0.090966754 -Hs 3 -Hd -1 -Ni 3 -Nx 381.00 -Ny 315.00 -Nz 0.00 -Ne 49.945291 -Nl RTR -Nw --- -Ma 0 -Md ffffffff -Ms a -Mt 800 -Is 10.255 -Id -1.255 -It message -Il 32 -If 0 -Ii 1 -Iv 32 
r -t 0.090966760 -Hs 17 -Hd -1 -Ni 17 -Nx 395.00 -Ny 366.00 -Nz 0.00 -Ne 49.945291 -Nl RTR -Nw --- -Ma 0 -Md ffffffff -Ms a -Mt 800 -Is 10.255 -Id -1.255 -It message -Il 32 -If 0 -Ii 1 -Iv 32 
s -t 0.124655126 -Hs 40 -Hd -1 -Ni 40 -Nx 387.00 -Ny 424.00 -Nz 0.00 -Ne 49.945291 -Nl RTR -Nw --- -Ma 0 -Md 0 -Ms 0 -Mt 0 -Is 40.255 -Id -1.255 -It message -Il 32 -If 0 -Ii 2 -Iv 32 
s -t 0.125010126 -Hs 40 -Hd -1 -Ni 40 -Nx 387.00 -Ny 424.00 -Nz 0.00 -Ne 49.945291 -Nl MAC -Nw --- -Ma 0 -Md ffffffff -Ms 28 -Mt 800 -Is 40.255 -Id -1.255 -It message -Il 90 -If 0 -Ii 2 -Iv 32 
N -t 0.125010 -n 17 -e 49.924346
N -t 0.125010 -n 19 -e 49.924346
N -t 0.125010 -n 16 -e 49.924346
N -t 0.125010 -n 18 -e 49.924346
N -t 0.125010 -n 3 -e 49.924346
N -t 0.125011 -n 9 -e 49.924346
N -t 0.125011 -n 41 -e 49.924202
N -t 0.125011 -n 15 -e 49.924346
N -t 0.125011 -n 8 -e 49.924346
N -t 0.125011 -n 39 -e 49.924346
N -t 0.125011 -n 20 -e 49.924346
N -t 0.125011 -n 32 -e 49.924346
N -t 0.125011 -n 21 -e 49.924346
N -t 0.125011 -n 2 -e 49.924346
N -t 0.125011 -n 0 -e 49.924346
N -t 0.125011 -n 5 -e 49.924345
N -t 0.125011 -n 1 -e 49.924345
N -t 0.125011 -n 23 -e 49.924345
N -t 0.125011 -n 31 -e 49.924345
N -t 0.125011 -n 38 -e 49.924345
N -t 0.125011 -n 42 -e 49.924345
N -t 0.125011 -n 10 -e 49.924201
N -t 0.125011 -n 47 -e 49.924345
N -t 0.125011 -n 6 -e 49.924345
N -t 0.125011 -n 7 -e 49.924345
N -t 0.125011 -n 28 -e 49.924345
N -t 0.125011 -n 22 -e 49.924345
N -t 0.125011 -n 24 -e 49.924345
N -t 0.125011 -n 37 -e 49.924345
N -t 0.125011 -n 34 -e 49.924345
N -t 0.125011 -n 27 -e 49.924345
N -t 0.125011 -n 25 -e 49.924345
N -t 0.125011 -n 43 -e 49.924345
N -t 0.125011 -n 26 -e 49.924345
N -t 0.125011 -n 4 -e 49.924345
N -t 0.125011 -n 12 -e 49.924345
N -t 0.125011 -n 11 -e 49.924345
N -t 0.125011 -n 33 -e 49.924345
N -t 0.125011 -n 29 -e 49.924345
N -t 0.125011 -n 44 -e 49.924345
N -t 0.125011 -n 45 -e 49.924345
N -t 0.125011 -n 14 -e 49.924345
N -t 0.125011 -n 46 -e 49.924345
N -t 0.125011 -n 30 -e 49.924345
N -t 0.125011 -n 35 -e 49.924345
N -t 0.125011 -n 36 -e 49.924345
N -t 0.125012 -n 13 -e 49.924345
r -t 0.125730321 -Hs 17 -Hd -1 -Ni 17 -Nx 395.00 -Ny 366.00 -Nz 0.00 -Ne 49.924346 -Nl MAC -Nw --- -Ma 0 -Md ffffffff -Ms 28 -Mt 800 -Is 40.255 -Id -1.255 -It message -Il 32 -If 0 -Ii 2 -Iv 32 
r -t 0.125730359 -Hs 19 -Hd -1 -Ni 19 -Nx 321.00 -Ny 401.00 -Nz 0.00 -Ne 49.924346 -Nl MAC -Nw --- -Ma 0 -Md ffffffff -Ms 28 -Mt 800 -Is 40.255 -Id -1.255 -It message -Il 32 -If 0 -Ii 2 -Iv 32 
r -t 0.125730379 -Hs 16 -Hd -1 -Ni 16 -Nx 458.00 -Ny 397.00 -Nz 0.00 -Ne 49.924346 -Nl MAC -Nw --- -Ma 0 -Md ffffffff -Ms 28 -Mt 800 -Is 40.255 -Id -1.255 -It message -Il 32 -If 0 -Ii 2 -Iv 32 
r -t 0.125730433 -Hs 18 -Hd -1 -Ni 18 -Nx 327.00 -Ny 354.00 -Nz 0.00 -Ne 49.924346 -Nl MAC -Nw --- -Ma 0 -Md ffffffff -Ms 28 -Mt 800 -Is 40.255 -Id -1.255 -It message -Il 32 -If 0 -Ii 2 -Iv 32 
r -t 0.125730490 -Hs 3 -Hd -1 -Ni 3 -Nx 381.00 -Ny 315.00 -Nz 0.00 -Ne 49.924346 -Nl MAC -Nw --- -Ma 0 -Md ffffffff -Ms 28 -Mt 800 -Is 40.255 -Id -1.255 -It message -Il 32 -If 0 -Ii 2 -Iv 32 
r -t 0.125730557 -Hs 9 -Hd -1 -Ni 9 -Nx 446.00 -Ny 309.00 -Nz 0.00 -Ne 49.924346 -Nl MAC -Nw --- -Ma 0 -Md ffffffff -Ms 28 -Mt 800 -Is 40.255 -Id -1.255 -It message -Il 32 -If 0 -Ii 2 -Iv 32 
r -t 0.125730562 -Hs 41 -Hd -1 -Ni 41 -Nx 263.00 -Ny 382.00 -Nz 0.00 -Ne 49.924202 -Nl MAC -Nw --- -Ma 0 -Md ffffffff -Ms 28 -Mt 800 -Is 40.255 -Id -1.255 -It message -Il 32 -If 0 -Ii 2 -Iv 32 
r -t 0.125730583 -Hs 15 -Hd -1 -Ni 15 -Nx 522.00 -Ny 400.00 -Nz 0.00 -Ne 49.924346 -Nl MAC -Nw --- -Ma 0 -Md ffffffff -Ms 28 -Mt 800 -Is 40.255 -Id -1.255 -It message -Il 32 -If 0 -Ii 2 -Iv 32 
r -t 0.125730639 -Hs 8 -Hd -1 -Ni 8 -Nx 536.00 -Ny 385.00 -Nz 0.00 -Ne 49.924346 -Nl MAC -Nw --- -Ma 0 -Md ffffffff -Ms 28 -Mt 800 -Is 40.255 -Id -1.255 -It message -Il 32 -If 0 -Ii 2 -Iv 32 
r -t 0.125730660 -Hs 39 -Hd -1 -Ni 39 -Nx 547.00 -Ny 434.00 -Nz 0.00 -Ne 49.924346 -Nl MAC -Nw --- -Ma 0 -Md ffffffff -Ms 28 -Mt 800 -Is 40.255 -Id -1.255 -It message -Il 32 -If 0 -Ii 2 -Iv 32 
r -t 0.125730678 -Hs 20 -Hd -1 -Ni 20 -Nx 297.00 -Ny 285.00 -Nz 0.00 -Ne 49.924346 -Nl MAC -Nw --- -Ma 0 -Md ffffffff -Ms 28 -Mt 800 -Is 40.255 -Id -1.255 -It message -Il 32 -If 0 -Ii 2 -Iv 32 
r -t 0.125730681 -Hs 32 -Hd -1 -Ni 32 -Nx 513.00 -Ny 315.00 -Nz 0.00 -Ne 49.924346 -Nl MAC -Nw --- -Ma 0 -Md ffffffff -Ms 28 -Mt 800 -Is 40.255 -Id -1.255 -It message -Il 32 -If 0 -Ii 2 -Iv 32 
r -t 0.125730719 -Hs 21 -Hd -1 -Ni 21 -Nx 342.00 -Ny 252.00 -Nz 0.00 -Ne 49.924346 -Nl MAC -Nw --- -Ma 0 -Md ffffffff -Ms 28 -Mt 800 -Is 40.255 -Id -1.255 -It message -Il 32 -If 0 -Ii 2 -Iv 32 
r -t 0.125730757 -Hs 2 -Hd -1 -Ni 2 -Nx 283.00 -Ny 266.00 -Nz 0.00 -Ne 49.924346 -Nl MAC -Nw --- -Ma 0 -Md ffffffff -Ms 28 -Mt 800 -Is 40.255 -Id -1.255 -It message -Il 32 -If 0 -Ii 2 -Iv 32 
r -t 0.125730817 -Hs 0 -Hd -1 -Ni 0 -Nx 187.00 -Ny 370.00 -Nz 0.00 -Ne 49.924346 -Nl MAC -Nw --- -Ma 0 -Md ffffffff -Ms 28 -Mt 800 -Is 40.255 -Id -1.255 -It message -Il 32 -If 0 -Ii 2 -Iv 32 
r -t 0.125730855 -Hs 5 -Hd -1 -Ni 5 -Nx 480.00 -Ny 226.00 -Nz 0.00 -Ne 49.924345 -Nl MAC -Nw --- -Ma 0 -Md ffffffff -Ms 28 -Mt 800 -Is 40.255 -Id -1.255 -It message -Il 32 -If 0 -Ii 2 -Iv 32 
r -t 0.125730860 -Hs 1 -Hd -1 -Ni 1 -Nx 214.00 -Ny 288.00 -Nz 0.00 -Ne 49.924345 -Nl MAC -Nw --- -Ma 0 -Md ffffffff -Ms 28 -Mt 800 -Is 40.255 -Id -1.255 -It message -Il 32 -If 0 -Ii 2 -Iv 32 
r -t 0.125730919 -Hs 23 -Hd -1 -Ni 23 -Nx 270.00 -Ny 217.00 -Nz 0.00 -Ne 49.924345 -Nl MAC -Nw --- -Ma 0 -Md ffffffff -Ms 28 -Mt 800 -Is 40.255 -Id -1.255 -It message -Il 32 -If 0 -Ii 2 -Iv 32 
r -t 0.125730921 -Hs 31 -Hd -1 -Ni 31 -Nx 541.00 -Ny 242.00 -Nz 0.00 -Ne 49.924345 -Nl MAC -Nw --- -Ma 0 -Md ffffffff -Ms 28 -Mt 800 -Is 40.255 -Id -1.255 -It message -Il 32 -If 0 -Ii 2 -Iv 32 
r -t 0.125730938 -Hs 38 -Hd -1 -Ni 38 -Nx 612.00 -Ny 331.00 -Nz 0.00 -Ne 49.924345 -Nl MAC -Nw --- -Ma 0 -Md ffffffff -Ms 28 -Mt 800 -Is 40.255 -Id -1.255 -It message -Il 32 -If 0 -Ii 2 -Iv 32 
r -t 0.125755321 -Hs 17 -Hd -1 -Ni 17 -Nx 395.00 -Ny 366.00 -Nz 0.00 -Ne 49.924346 -Nl RTR -Nw --- -Ma 0 -Md ffffffff -Ms 28 -Mt 800 -Is 40.255 -Id -1.255 -It message -Il 32 -If 0 -Ii 2 -Iv 32 
r -t 0.125755359 -Hs 19 -Hd -1 -Ni 19 -Nx 321.00 -Ny 401.00 -Nz 0.00 -Ne 49.924346 -Nl RTR -Nw --- -Ma 0 -Md ffffffff -Ms 28 -Mt 800 -Is 40.255 -Id -1.255 -It message -Il 32 -If 0 -Ii 2 -Iv 32 
r -t 0.125755379 -Hs 16 -Hd -1 -Ni 16 -Nx 458.00 -Ny 397.00 -Nz 0.00 -Ne 49.924346 -Nl RTR -Nw --- -Ma 0 -Md ffffffff -Ms 28 -Mt 800 -Is 40.255 -Id -1.255 -It message -Il 32 -If 0 -Ii 2 -Iv 32 
r -t 0.125755433 -Hs 18 -Hd -1 -Ni 18 -Nx 327.00 -Ny 354.00 -Nz 0.00 -Ne 49.924346 -Nl RTR -Nw --- -Ma 0 -Md ffffffff -Ms 28 -Mt 800 -Is 40.255 -Id -1.255 -It message -Il 32 -If 0 -Ii 2 -Iv 32 
r -t 0.125755490 -Hs 3 -Hd -1 -Ni 3 -Nx 381.00 -Ny 315.00 -Nz 0.00 -Ne 49.924346 -Nl RTR -Nw --- -Ma 0 -Md ffffffff -Ms 28 -Mt 800 -Is 40.255 -Id -1.255 -It message -Il 32 -If 0 -Ii 2 -Iv 32 
r -t 0.125755557 -Hs 9 -Hd -1 -Ni 9 -Nx 446.00 -Ny 309.00 -Nz 0.00 -Ne 49.924346 -Nl RTR -Nw --- -Ma 0 -Md ffffffff -Ms 28 -Mt 800 -Is 40.255 -Id -1.255 -It message -Il 32 -If 0 -Ii 2 -Iv 32 
r -t 0.125755562 -Hs 41 -Hd -1 -Ni 41 -Nx 263.00 -Ny 382.00 -Nz 0.00 -Ne 49.924202 -Nl RTR -Nw --- -Ma 0 -Md ffffffff -Ms 28 -Mt 800 -Is 40.255 -Id -1.255 -It message -Il 32 -If 0 -Ii 2 -Iv 32 
r -t 0.125755583 -Hs 15 -Hd -1 -Ni 15 -Nx 522.00 -Ny 400.00 -Nz 0.00 -Ne 49.924346 -Nl RTR -Nw --- -Ma 0 -Md ffffffff -Ms 28 -Mt 800 -Is 40.255 -Id -1.255 -It message -Il 32 -If 0 -Ii 2 -Iv 32 
r -t 0.125755639 -Hs 8 -Hd -1 -Ni 8 -Nx 536.00 -Ny 385.00 -Nz 0.00 -Ne 49.924346 -Nl RTR -Nw --- -Ma 0 -Md ffffffff -Ms 28 -Mt 800 -Is 40.255 -Id -1.255 -It message -Il 32 -If 0 -Ii 2 -Iv 32 
r -t 0.125755660 -Hs 39 -Hd -1 -Ni 39 -Nx 547.00 -Ny 434.00 -Nz 0.00 -Ne 49.924346 -Nl RTR -Nw --- -Ma 0 -Md ffffffff -Ms 28 -Mt 800 -Is 40.255 -Id -1.255 -It message -Il 32 -If 0 -Ii 2 -Iv 32 
r -t 0.125755678 -Hs 20 -Hd -1 -Ni 20 -Nx 297.00 -Ny 285.00 -Nz 0.00 -Ne 49.924346 -Nl RTR -Nw --- -Ma 0 -Md ffffffff -Ms 28 -Mt 800 -Is 40.255 -Id -1.255 -It message -Il 32 -If 0 -Ii 2 -Iv 32 
r -t 0.125755681 -Hs 32 -Hd -1 -Ni 32 -Nx 513.00 -Ny 315.00 -Nz 0.00 -Ne 49.924346 -Nl RTR -Nw --- -Ma 0 -Md ffffffff -Ms 28 -Mt 800 -Is 40.255 -Id -1.255 -It message -Il 32 -If 0 -Ii 2 -Iv 32 
r -t 0.125755719 -Hs 21 -Hd -1 -Ni 21 -Nx 342.00 -Ny 252.00 -Nz 0.00 -Ne 49.924346 -Nl RTR -Nw --- -Ma 0 -Md ffffffff -Ms 28 -Mt 800 -Is 40.255 -Id -1.255 -It message -Il 32 -If 0 -Ii 2 -Iv 32 
r -t 0.125755757 -Hs 2 -Hd -1 -Ni 2 -Nx 283.00 -Ny 266.00 -Nz 0.00 -Ne 49.924346 -Nl RTR -Nw --- -Ma 0 -Md ffffffff -Ms 28 -Mt 800 -Is 40.255 -Id -1.255 -It message -Il 32 -If 0 -Ii 2 -Iv 32 
r -t 0.125755817 -Hs 0 -Hd -1 -Ni 0 -Nx 187.00 -Ny 370.00 -Nz 0.00 -Ne 49.924346 -Nl RTR -Nw --- -Ma 0 -Md ffffffff -Ms 28 -Mt 800 -Is 40.255 -Id -1.255 -It message -Il 32 -If 0 -Ii 2 -Iv 32 
r -t 0.125755855 -Hs 5 -Hd -1 -Ni 5 -Nx 480.00 -Ny 226.00 -Nz 0.00 -Ne 49.924345 -Nl RTR -Nw --- -Ma 0 -Md ffffffff -Ms 28 -Mt 800 -Is 40.255 -Id -1.255 -It message -Il 32 -If 0 -Ii 2 -Iv 32 
r -t 0.125755860 -Hs 1 -Hd -1 -Ni 1 -Nx 214.00 -Ny 288.00 -Nz 0.00 -Ne 49.924345 -Nl RTR -Nw --- -Ma 0 -Md ffffffff -Ms 28 -Mt 800 -Is 40.255 -Id -1.255 -It message -Il 32 -If 0 -Ii 2 -Iv 32 
r -t 0.125755919 -Hs 23 -Hd -1 -Ni 23 -Nx 270.00 -Ny 217.00 -Nz 0.00 -Ne 49.924345 -Nl RTR -Nw --- -Ma 0 -Md ffffffff -Ms 28 -Mt 800 -Is 40.255 -Id -1.255 -It message -Il 32 -If 0 -Ii 2 -Iv 32 
r -t 0.125755921 -Hs 31 -Hd -1 -Ni 31 -Nx 541.00 -Ny 242.00 -Nz 0.00 -Ne 49.924345 -Nl RTR -Nw --- -Ma 0 -Md ffffffff -Ms 28 -Mt 800 -Is 40.255 -Id -1.255 -It message -Il 32 -If 0 -Ii 2 -Iv 32 