s 1.000000000 _2_ AGT  --- 0 tcp 40 [0 0 0 0] ------- [2:0 0:0 32 0] [0 0] 0 0
r 1.000000000 _2_ RTR  --- 0 tcp 40 [0 0 0 0] ------- [2:0 0:0 32 0] [0 0] 0 0
s 1.000000000 _6_ AGT  --- 1 tcp 40 [0 0 0 0] ------- [6:0 3:0 32 0] [0 0] 0 0
r 1.000000000 _6_ RTR  --- 1 tcp 40 [0 0 0 0] ------- [6:0 3:0 32 0] [0 0] 0 0
s 1.000000000 _2_ RTR  --- 0 AODV 48 [0 0 0 0] ------- [2:255 -1:255 30 0] [0x2 1 1 [0 0] [2 4]] (REQUEST)
s 1.000000000 _6_ RTR  --- 0 AODV 48 [0 0 0 0] ------- [6:255 -1:255 30 0] [0x2 1 1 [3 0] [6 4]] (REQUEST)
s 1.000375000 _6_ MAC  --- 0 AODV 106 [0 ffffffff 6 800] ------- [6:255 -1:255 30 0] [0x2 1 1 [3 0] [6 4]] (REQUEST)
r 1.001223238 _5_ MAC  --- 0 AODV 48 [0 ffffffff 6 800] ------- [6:255 -1:255 30 0] [0x2 1 1 [3 0] [6 4]] (REQUEST)
r 1.001223371 _7_ MAC  --- 0 AODV 48 [0 ffffffff 6 800] ------- [6:255 -1:255 30 0] [0x2 1 1 [3 0] [6 4]] (REQUEST)
r 1.001223452 _2_ MAC  --- 0 AODV 48 [0 ffffffff 6 800] ------- [6:255 -1:255 30 0] [0x2 1 1 [3 0] [6 4]] (REQUEST)
r 1.001223494 _4_ MAC  --- 0 AODV 48 [0 ffffffff 6 800] ------- [6:255 -1:255 30 0] [0x2 1 1 [3 0] [6 4]] (REQUEST)
r 1.001223512 _1_ MAC  --- 0 AODV 48 [0 ffffffff 6 800] ------- [6:255 -1:255 30 0] [0x2 1 1 [3 0] [6 4]] (REQUEST)
r 1.001248238 _5_ RTR  --- 0 AODV 48 [0 ffffffff 6 800] ------- [6:255 -1:255 30 0] [0x2 1 1 [3 0] [6 4]] (REQUEST)
r 1.001248371 _7_ RTR  --- 0 AODV 48 [0 ffffffff 6 800] ------- [6:255 -1:255 30 0] [0x2 1 1 [3 0] [6 4]] (REQUEST)
r 1.001248452 _2_ RTR  --- 0 AODV 48 [0 ffffffff 6 800] ------- [6:255 -1:255 30 0] [0x2 1 1 [3 0] [6 4]] (REQUEST)
r 1.001248494 _4_ RTR  --- 0 AODV 48 [0 ffffffff 6 800] ------- [6:255 -1:255 30 0] [0x2 1 1 [3 0] [6 4]] (REQUEST)
r 1.001248512 _1_ RTR  --- 0 AODV 48 [0 ffffffff 6 800] ------- [6:255 -1:255 30 0] [0x2 1 1 [3 0] [6 4]] (REQUEST)
s 1.001533452 _2_ MAC  --- 0 AODV 106 [0 ffffffff 2 800] ------- [2:255 -1:255 30 0] [0x2 1 1 [0 0] [2 4]] (REQUEST)
r 1.002381776 _1_ MAC  --- 0 AODV 48 [0 ffffffff 2 800] ------- [2:255 -1:255 30 0] [0x2 1 1 [0 0] [2 4]] (REQUEST)
r 1.002381904 _6_ MAC  --- 0 AODV 48 [0 ffffffff 2 800] ------- [2:255 -1:255 30 0] [0x2 1 1 [0 0] [2 4]] (REQUEST)
r 1.002382029 _7_ MAC  --- 0 AODV 48 [0 ffffffff 2 800] ------- [2:255 -1:255 30 0] [0x2 1 1 [0 0] [2 4]] (REQUEST)
r 1.002382141 _5_ MAC  --- 0 AODV 48 [0 ffffffff 2 800] ------- [2:255 -1:255 30 0] [0x2 1 1 [0 0] [2 4]] (REQUEST)
r 1.002382160 _4_ MAC  --- 0 AODV 48 [0 ffffffff 2 800] ------- [2:255 -1:255 30 0] [0x2 1 1 [0 0] [2 4]] (REQUEST)
r 1.002406776 _1_ RTR  --- 0 AODV 48 [0 ffffffff 2 800] ------- [2:255 -1:255 30 0] [0x2 1 1 [0 0] [2 4]] (REQUEST)
r 1.002406904 _6_ RTR  --- 0 AODV 48 [0 ffffffff 2 800] ------- [2:255 -1:255 30 0] [0x2 1 1 [0 0] [2 4]] (REQUEST)
r 1.002407029 _7_ RTR  --- 0 AODV 48 [0 ffffffff 2 800] ------- [2:255 -1:255 30 0] [0x2 1 1 [0 0] [2 4]] (REQUEST)
r 1.002407141 _5_ RTR  --- 0 AODV 48 [0 ffffffff 2 800] ------- [2:255 -1:255 30 0] [0x2 1 1 [0 0] [2 4]] (REQUEST)
r 1.002407160 _4_ RTR  --- 0 AODV 48 [0 ffffffff 2 800] ------- [2:255 -1:255 30 0] [0x2 1 1 [0 0] [2 4]] (REQUEST)
s 1.002834974 _7_ RTR  --- 0 AODV 48 [0 ffffffff 2 800] ------- [7:255 -1:255 29 0] [0x2 2 1 [0 0] [2 4]] (REQUEST)
s 1.003149974 _7_ MAC  --- 0 AODV 106 [0 ffffffff 7 800] ------- [7:255 -1:255 29 0] [0x2 2 1 [0 0] [2 4]] (REQUEST)
s 1.003545243 _4_ RTR  --- 0 AODV 48 [0 ffffffff 2 800] ------- [4:255 -1:255 29 0] [0x2 2 1 [0 0] [2 4]] (REQUEST)
s 1.003594511 _4_ RTR  --- 0 AODV 48 [0 ffffffff 6 800] ------- [4:255 -1:255 29 0] [0x2 2 1 [3 0] [6 4]] (REQUEST)
r 1.003998345 _6_ MAC  --- 0 AODV 48 [0 ffffffff 7 800] ------- [7:255 -1:255 29 0] [0x2 2 1 [0 0] [2 4]] (REQUEST)
r 1.003998441 _5_ MAC  --- 0 AODV 48 [0 ffffffff 7 800] ------- [7:255 -1:255 29 0] [0x2 2 1 [0 0] [2 4]] (REQUEST)
r 1.003998551 _2_ MAC  --- 0 AODV 48 [0 ffffffff 7 800] ------- [7:255 -1:255 29 0] [0x2 2 1 [0 0] [2 4]] (REQUEST)
r 1.003998768 _1_ MAC  --- 0 AODV 48 [0 ffffffff 7 800] ------- [7:255 -1:255 29 0] [0x2 2 1 [0 0] [2 4]] (REQUEST)
r 1.004023345 _6_ RTR  --- 0 AODV 48 [0 ffffffff 7 800] ------- [7:255 -1:255 29 0] [0x2 2 1 [0 0] [2 4]] (REQUEST)
r 1.004023441 _5_ RTR  --- 0 AODV 48 [0 ffffffff 7 800] ------- [7:255 -1:255 29 0] [0x2 2 1 [0 0] [2 4]] (REQUEST)
r 1.004023551 _2_ RTR  --- 0 AODV 48 [0 ffffffff 7 800] ------- [7:255 -1:255 29 0] [0x2 2 1 [0 0] [2 4]] (REQUEST)
r 1.004023768 _1_ RTR  --- 0 AODV 48 [0 ffffffff 7 800] ------- [7:255 -1:255 29 0] [0x2 2 1 [0 0] [2 4]] (REQUEST)
s 1.004048358 _6_ RTR  --- 0 AODV 48 [0 ffffffff 2 800] ------- [6:255 -1:255 29 0] [0x2 2 1 [0 0] [2 4]] (REQUEST)
s 1.004377988 _7_ RTR  --- 0 AODV 48 [0 ffffffff 6 800] ------- [7:255 -1:255 29 0] [0x2 2 1 [3 0] [6 4]] (REQUEST)
s 1.004463358 _6_ MAC  --- 0 AODV 106 [0 ffffffff 6 800] ------- [6:255 -1:255 29 0] [0x2 2 1 [0 0] [2 4]] (REQUEST)
r 1.005311596 _5_ MAC  --- 0 AODV 48 [0 ffffffff 6 800] ------- [6:255 -1:255 29 0] [0x2 2 1 [0 0] [2 4]] (REQUEST)
r 1.005311728 _7_ MAC  --- 0 AODV 48 [0 ffffffff 6 800] ------- [6:255 -1:255 29 0] [0x2 2 1 [0 0] [2 4]] (REQUEST)
r 1.005311809 _2_ MAC  --- 0 AODV 48 [0 ffffffff 6 800] ------- [6:255 -1:255 29 0] [0x2 2 1 [0 0] [2 4]] (REQUEST)
r 1.005311851 _4_ MAC  --- 0 AODV 48 [0 ffffffff 6 800] ------- [6:255 -1:255 29 0] [0x2 2 1 [0 0] [2 4]] (REQUEST)
r 1.005311870 _1_ MAC  --- 0 AODV 48 [0 ffffffff 6 800] ------- [6:255 -1:255 29 0] [0x2 2 1 [0 0] [2 4]] (REQUEST)
r 1.005336596 _5_ RTR  --- 0 AODV 48 [0 ffffffff 6 800] ------- [6:255 -1:255 29 0] [0x2 2 1 [0 0] [2 4]] (REQUEST)
r 1.005336728 _7_ RTR  --- 0 AODV 48 [0 ffffffff 6 800] ------- [6:255 -1:255 29 0] [0x2 2 1 [0 0] [2 4]] (REQUEST)
r 1.005336809 _2_ RTR  --- 0 AODV 48 [0 ffffffff 6 800] ------- [6:255 -1:255 29 0] [0x2 2 1 [0 0] [2 4]] (REQUEST)
r 1.005336851 _4_ RTR  --- 0 AODV 48 [0 ffffffff 6 800] ------- [6:255 -1:255 29 0] [0x2 2 1 [0 0] [2 4]] (REQUEST)
r 1.005336870 _1_ RTR  --- 0 AODV 48 [0 ffffffff 6 800] ------- [6:255 -1:255 29 0] [0x2 2 1 [0 0] [2 4]] (REQUEST)
s 1.005441728 _7_ MAC  --- 0 AODV 106 [0 ffffffff 7 800] ------- [7:255 -1:255 29 0] [0x2 2 1 [3 0] [6 4]] (REQUEST)
r 1.006290099 _6_ MAC  --- 0 AODV 48 [0 ffffffff 7 800] ------- [7:255 -1:255 29 0] [0x2 2 1 [3 0] [6 4]] (REQUEST)
r 1.006290195 _5_ MAC  --- 0 AODV 48 [0 ffffffff 7 800] ------- [7:255 -1:255 29 0] [0x2 2 1 [3 0] [6 4]] (REQUEST)
r 1.006290305 _2_ MAC  --- 0 AODV 48 [0 ffffffff 7 800] ------- [7:255 -1:255 29 0] [0x2 2 1 [3 0] [6 4]] (REQUEST)
r 1.006290522 _1_ MAC  --- 0 AODV 48 [0 ffffffff 7 800] ------- [7:255 -1:255 29 0] [0x2 2 1 [3 0] [6 4]] (REQUEST)
r 1.006315099 _6_ RTR  --- 0 AODV 48 [0 ffffffff 7 800] ------- [7:255 -1:255 29 0] [0x2 2 1 [3 0] [6 4]] (REQUEST)
r 1.006315195 _5_ RTR  --- 0 AODV 48 [0 ffffffff 7 800] ------- [7:255 -1:255 29 0] [0x2 2 1 [3 0] [6 4]] (REQUEST)
r 1.006315305 _2_ RTR  --- 0 AODV 48 [0 ffffffff 7 800] ------- [7:255 -1:255 29 0] [0x2 2 1 [3 0] [6 4]] (REQUEST)
r 1.006315522 _1_ RTR  --- 0 AODV 48 [0 ffffffff 7 800] ------- [7:255 -1:255 29 0] [0x2 2 1 [3 0] [6 4]] (REQUEST)
s 1.006744592 _4_ MAC  --- 0 AODV 106 [0 ffffffff 4 800] ------- [4:255 -1:255 29 0] [0x2 2 1 [0 0] [2 4]] (REQUEST)
r 1.007593006 _3_ MAC  --- 0 AODV 48 [0 ffffffff 4 800] ------- [4:255 -1:255 29 0] [0x2 2 1 [0 0] [2 4]] (REQUEST)
r 1.007593082 _1_ MAC  --- 0 AODV 48 [0 ffffffff 4 800] ------- [4:255 -1:255 29 0] [0x2 2 1 [0 0] [2 4]] (REQUEST)
r 1.007593085 _6_ MAC  --- 0 AODV 48 [0 ffffffff 4 800] ------- [4:255 -1:255 29 0] [0x2 2 1 [0 0] [2 4]] (REQUEST)
r 1.007593088 _5_ MAC  --- 0 AODV 48 [0 ffffffff 4 800] ------- [4:255 -1:255 29 0] [0x2 2 1 [0 0] [2 4]] (REQUEST)
r 1.007593219 _0_ MAC  --- 0 AODV 48 [0 ffffffff 4 800] ------- [4:255 -1:255 29 0] [0x2 2 1 [0 0] [2 4]] (REQUEST)
r 1.007593300 _2_ MAC  --- 0 AODV 48 [0 ffffffff 4 800] ------- [4:255 -1:255 29 0] [0x2 2 1 [0 0] [2 4]] (REQUEST)
r 1.007618006 _3_ RTR  --- 0 AODV 48 [0 ffffffff 4 800] ------- [4:255 -1:255 29 0] [0x2 2 1 [0 0] [2 4]] (REQUEST)
r 1.007618082 _1_ RTR  --- 0 AODV 48 [0 ffffffff 4 800] ------- [4:255 -1:255 29 0] [0x2 2 1 [0 0] [2 4]] (REQUEST)
r 1.007618085 _6_ RTR  --- 0 AODV 48 [0 ffffffff 4 800] ------- [4:255 -1:255 29 0] [0x2 2 1 [0 0] [2 4]] (REQUEST)
r 1.007618088 _5_ RTR  --- 0 AODV 48 [0 ffffffff 4 800] ------- [4:255 -1:255 29 0] [0x2 2 1 [0 0] [2 4]] (REQUEST)
r 1.007618219 _0_ RTR  --- 0 AODV 48 [0 ffffffff 4 800] ------- [4:255 -1:255 29 0] [0x2 2 1 [0 0] [2 4]] (REQUEST)
s 1.007618219 _0_ RTR  --- 0 AODV 44 [0 0 0 0] ------- [0:255 2:255 30 4] [0x4 1 [0 4] 10.000000] (REPLY)
r 1.007618300 _2_ RTR  --- 0 AODV 48 [0 ffffffff 4 800] ------- [4:255 -1:255 29 0] [0x2 2 1 [0 0] [2 4]] (REQUEST)
s 1.007637164 _1_ RTR  --- 0 AODV 48 [0 ffffffff 6 800] ------- [1:255 -1:255 29 0] [0x2 2 1 [3 0] [6 4]] (REQUEST)
s 1.007862592 _4_ MAC  --- 0 AODV 106 [0 ffffffff 4 800] ------- [4:255 -1:255 29 0] [0x2 2 1 [3 0] [6 4]] (REQUEST)
r 1.008711006 _3_ MAC  --- 0 AODV 48 [0 ffffffff 4 800] ------- [4:255 -1:255 29 0] [0x2 2 1 [3 0] [6 4]] (REQUEST)
r 1.008711082 _1_ MAC  --- 0 AODV 48 [0 ffffffff 4 800] ------- [4:255 -1:255 29 0] [0x2 2 1 [3 0] [6 4]] (REQUEST)
r 1.008711085 _6_ MAC  --- 0 AODV 48 [0 ffffffff 4 800] ------- [4:255 -1:255 29 0] [0x2 2 1 [3 0] [6 4]] (REQUEST)
r 1.008711088 _5_ MAC  --- 0 AODV 48 [0 ffffffff 4 800] ------- [4:255 -1:255 29 0] [0x2 2 1 [3 0] [6 4]] (REQUEST)
r 1.008711219 _0_ MAC  --- 0 AODV 48 [0 ffffffff 4 800] ------- [4:255 -1:255 29 0] [0x2 2 1 [3 0] [6 4]] (REQUEST)
r 1.008711300 _2_ MAC  --- 0 AODV 48 [0 ffffffff 4 800] ------- [4:255 -1:255 29 0] [0x2 2 1 [3 0] [6 4]] (REQUEST)
r 1.008736006 _3_ RTR  --- 0 AODV 48 [0 ffffffff 4 800] ------- [4:255 -1:255 29 0] [0x2 2 1 [3 0] [6 4]] (REQUEST)
s 1.008736006 _3_ RTR  --- 0 AODV 44 [0 0 0 0] ------- [3:255 6:255 30 4] [0x4 1 [3 4] 10.000000] (REPLY)
r 1.008736082 _1_ RTR  --- 0 AODV 48 [0 ffffffff 4 800] ------- [4:255 -1:255 29 0] [0x2 2 1 [3 0] [6 4]] (REQUEST)
r 1.008736085 _6_ RTR  --- 0 AODV 48 [0 ffffffff 4 800] ------- [4:255 -1:255 29 0] [0x2 2 1 [3 0] [6 4]] (REQUEST)
r 1.008736088 _5_ RTR  --- 0 AODV 48 [0 ffffffff 4 800] ------- [4:255 -1:255 29 0] [0x2 2 1 [3 0] [6 4]] (REQUEST)
r 1.008736219 _0_ RTR  --- 0 AODV 48 [0 ffffffff 4 800] ------- [4:255 -1:255 29 0] [0x2 2 1 [3 0] [6 4]] (REQUEST)
r 1.008736300 _2_ RTR  --- 0 AODV 48 [0 ffffffff 4 800] ------- [4:255 -1:255 29 0] [0x2 2 1 [3 0] [6 4]] (REQUEST)
s 1.008807817 _5_ RTR  --- 0 AODV 48 [0 ffffffff 2 800] ------- [5:255 -1:255 29 0] [0x2 2 1 [0 0] [2 4]] (REQUEST)
s 1.008821219 _0_ MAC  --- 0 ARP 86 [0 ffffffff 0 806] ------- [REQUEST 0/0 0/4]
s 1.009239792 _5_ RTR  --- 0 AODV 48 [0 ffffffff 6 800] ------- [5:255 -1:255 29 0] [0x2 2 1 [3 0] [6 4]] (REQUEST)
s 1.009413212 _2_ RTR  --- 0 AODV 48 [0 ffffffff 6 800] ------- [2:255 -1:255 29 0] [0x2 2 1 [3 0] [6 4]] (REQUEST)
r 1.009509807 _3_ MAC  --- 0 ARP 28 [0 ffffffff 0 806] ------- [REQUEST 0/0 0/4]
r 1.009509846 _4_ MAC  --- 0 ARP 28 [0 ffffffff 0 806] ------- [REQUEST 0/0 0/4]
r 1.009509940 _1_ MAC  --- 0 ARP 28 [0 ffffffff 0 806] ------- [REQUEST 0/0 0/4]
s 1.009679846 _4_ MAC  --- 0 RTS 44 [52e 0 4 0] 
r 1.010032474 _0_ MAC  --- 0 RTS 44 [52e 0 4 0] 
s 1.010042474 _0_ MAC  --- 0 CTS 38 [3f4 4 0 0] 
r 1.010347101 _4_ MAC  --- 0 CTS 38 [3f4 4 0 0] 
s 1.010357101 _4_ MAC  --- 0 ARP 86 [13a 0 4 806] ------- [REPLY 4/4 0/0]
s 1.010770011 _1_ RTR  --- 0 AODV 48 [0 ffffffff 2 800] ------- [1:255 -1:255 29 0] [0x2 2 1 [0 0] [2 4]] (REQUEST)
r 1.011045729 _0_ MAC  --- 0 ARP 28 [13a 0 4 806] ------- [REPLY 4/4 0/0]
s 1.011055729 _0_ MAC  --- 0 ACK 38 [0 4 0 0] 
r 1.011360356 _4_ MAC  --- 0 ACK 38 [0 4 0 0] 
s 1.011530449 _1_ MAC  --- 0 AODV 106 [0 ffffffff 1 800] ------- [1:255 -1:255 29 0] [0x2 2 1 [3 0] [6 4]] (REQUEST)
s 1.011704863 _3_ RTR  --- 0 AODV 48 [0 ffffffff 4 800] ------- [3:255 -1:255 28 0] [0x2 3 1 [0 0] [2 4]] (REQUEST)
r 1.012378773 _2_ MAC  --- 0 AODV 48 [0 ffffffff 1 800] ------- [1:255 -1:255 29 0] [0x2 2 1 [3 0] [6 4]] (REQUEST)
r 1.012378940 _4_ MAC  --- 0 AODV 48 [0 ffffffff 1 800] ------- [1:255 -1:255 29 0] [0x2 2 1 [3 0] [6 4]] (REQUEST)
r 1.012378961 _6_ MAC  --- 0 AODV 48 [0 ffffffff 1 800] ------- [1:255 -1:255 29 0] [0x2 2 1 [3 0] [6 4]] (REQUEST)
r 1.012379150 _5_ MAC  --- 0 AODV 48 [0 ffffffff 1 800] ------- [1:255 -1:255 29 0] [0x2 2 1 [3 0] [6 4]] (REQUEST)
r 1.012379169 _0_ MAC  --- 0 AODV 48 [0 ffffffff 1 800] ------- [1:255 -1:255 29 0] [0x2 2 1 [3 0] [6 4]] (REQUEST)
r 1.012379242 _7_ MAC  --- 0 AODV 48 [0 ffffffff 1 800] ------- [1:255 -1:255 29 0] [0x2 2 1 [3 0] [6 4]] (REQUEST)
r 1.012403773 _2_ RTR  --- 0 AODV 48 [0 ffffffff 1 800] ------- [1:255 -1:255 29 0] [0x2 2 1 [3 0] [6 4]] (REQUEST)
r 1.012403940 _4_ RTR  --- 0 AODV 48 [0 ffffffff 1 800] ------- [1:255 -1:255 29 0] [0x2 2 1 [3 0] [6 4]] (REQUEST)
r 1.012403961 _6_ RTR  --- 0 AODV 48 [0 ffffffff 1 800] ------- [1:255 -1:255 29 0] [0x2 2 1 [3 0] [6 4]] (REQUEST)
r 1.012404150 _5_ RTR  --- 0 AODV 48 [0 ffffffff 1 800] ------- [1:255 -1:255 29 0] [0x2 2 1 [3 0] [6 4]] (REQUEST)
r 1.012404169 _0_ RTR  --- 0 AODV 48 [0 ffffffff 1 800] ------- [1:255 -1:255 29 0] [0x2 2 1 [3 0] [6 4]] (REQUEST)
r 1.012404242 _7_ RTR  --- 0 AODV 48 [0 ffffffff 1 800] ------- [1:255 -1:255 29 0] [0x2 2 1 [3 0] [6 4]] (REQUEST)
s 1.012568449 _1_ MAC  --- 0 AODV 106 [0 ffffffff 1 800] ------- [1:255 -1:255 29 0] [0x2 2 1 [0 0] [2 4]] (REQUEST)
r 1.013416773 _2_ MAC  --- 0 AODV 48 [0 ffffffff 1 800] ------- [1:255 -1:255 29 0] [0x2 2 1 [0 0] [2 4]] (REQUEST)
r 1.013416940 _4_ MAC  --- 0 AODV 48 [0 ffffffff 1 800] ------- [1:255 -1:255 29 0] [0x2 2 1 [0 0] [2 4]] (REQUEST)
r 1.013416961 _6_ MAC  --- 0 AODV 48 [0 ffffffff 1 800] ------- [1:255 -1:255 29 0] [0x2 2 1 [0 0] [2 4]] (REQUEST)
r 1.013417150 _5_ MAC  --- 0 AODV 48 [0 ffffffff 1 800] ------- [1:255 -1:255 29 0] [0x2 2 1 [0 0] [2 4]] (REQUEST)
r 1.013417169 _0_ MAC  --- 0 AODV 48 [0 ffffffff 1 800] ------- [1:255 -1:255 29 0] [0x2 2 1 [0 0] [2 4]] (REQUEST)
r 1.013417242 _7_ MAC  --- 0 AODV 48 [0 ffffffff 1 800] ------- [1:255 -1:255 29 0] [0x2 2 1 [0 0] [2 4]] (REQUEST)
r 1.013441773 _2_ RTR  --- 0 AODV 48 [0 ffffffff 1 800] ------- [1:255 -1:255 29 0] [0x2 2 1 [0 0] [2 4]] (REQUEST)
r 1.013441940 _4_ RTR  --- 0 AODV 48 [0 ffffffff 1 800] ------- [1:255 -1:255 29 0] [0x2 2 1 [0 0] [2 4]] (REQUEST)
r 1.013441961 _6_ RTR  --- 0 AODV 48 [0 ffffffff 1 800] ------- [1:255 -1:255 29 0] [0x2 2 1 [0 0] [2 4]] (REQUEST)
r 1.013442150 _5_ RTR  --- 0 AODV 48 [0 ffffffff 1 800] ------- [1:255 -1:255 29 0] [0x2 2 1 [0 0] [2 4]] (REQUEST)
r 1.013442169 _0_ RTR  --- 0 AODV 48 [0 ffffffff 1 800] ------- [1:255 -1:255 29 0] [0x2 2 1 [0 0] [2 4]] (REQUEST)
r 1.013442242 _7_ RTR  --- 0 AODV 48 [0 ffffffff 1 800] ------- [1:255 -1:255 29 0] [0x2 2 1 [0 0] [2 4]] (REQUEST)
s 1.013527169 _0_ MAC  --- 0 RTS 44 [5ae 4 0 0] 
r 1.013879797 _4_ MAC  --- 0 RTS 44 [5ae 4 0 0] 
s 1.013889797 _4_ MAC  --- 0 CTS 38 [474 0 0 0] 
r 1.014194424 _0_ MAC  --- 0 CTS 38 [474 0 0 0] 
s 1.014204424 _0_ MAC  --- 0 AODV 102 [13a 4 0 800] ------- [0:255 2:255 30 4] [0x4 1 [0 4] 10.000000] (REPLY)
r 1.015021052 _4_ MAC  --- 0 AODV 44 [13a 4 0 800] ------- [0:255 2:255 30 4] [0x4 1 [0 4] 10.000000] (REPLY)
s 1.015031052 _4_ MAC  --- 0 ACK 38 [0 0 0 0] 
r 1.015046052 _4_ RTR  --- 0 AODV 44 [13a 4 0 800] ------- [0:255 2:255 30 4] [0x4 1 [0 4] 10.000000] (REPLY)
f 1.015046052 _4_ RTR  --- 0 AODV 44 [13a 4 0 800] ------- [0:255 2:255 29 2] [0x4 2 [0 4] 10.000000] (REPLY)
r 1.015335679 _0_ MAC  --- 0 ACK 38 [0 0 0 0] 
s 1.015445052 _4_ MAC  --- 0 ARP 86 [0 ffffffff 4 806] ------- [REQUEST 4/4 0/2]
r 1.016133466 _3_ MAC  --- 0 ARP 28 [0 ffffffff 4 806] ------- [REQUEST 4/4 0/2]
r 1.016133542 _1_ MAC  --- 0 ARP 28 [0 ffffffff 4 806] ------- [REQUEST 4/4 0/2]
r 1.016133545 _6_ MAC  --- 0 ARP 28 [0 ffffffff 4 806] ------- [REQUEST 4/4 0/2]
r 1.016133548 _5_ MAC  --- 0 ARP 28 [0 ffffffff 4 806] ------- [REQUEST 4/4 0/2]
r 1.016133679 _0_ MAC  --- 0 ARP 28 [0 ffffffff 4 806] ------- [REQUEST 4/4 0/2]
r 1.016133760 _2_ MAC  --- 0 ARP 28 [0 ffffffff 4 806] ------- [REQUEST 4/4 0/2]
s 1.016283466 _3_ MAC  --- 0 ARP 86 [0 ffffffff 3 806] ------- [REQUEST 3/3 0/4]
r 1.016971881 _4_ MAC  --- 0 ARP 28 [0 ffffffff 3 806] ------- [REQUEST 3/3 0/4]
r 1.016972054 _0_ MAC  --- 0 ARP 28 [0 ffffffff 3 806] ------- [REQUEST 3/3 0/4]
r 1.016972277 _5_ MAC  --- 0 ARP 28 [0 ffffffff 3 806] ------- [REQUEST 3/3 0/4]
s 1.017121466 _3_ MAC  --- 0 RTS 44 [5ae 4 3 0] 
s 1.017121881 _4_ MAC  --- 0 RTS 44 [52e 3 4 0] 
s 1.017356892 _0_ RTR  --- 0 AODV 48 [0 ffffffff 4 800] ------- [0:255 -1:255 28 0] [0x2 3 1 [3 0] [6 4]] (REQUEST)
s 1.017948508 _0_ MAC  --- 0 AODV 106 [0 ffffffff 0 800] ------- [0:255 -1:255 28 0] [0x2 3 1 [3 0] [6 4]] (REQUEST)
r 1.018797096 _3_ MAC  --- 0 AODV 48 [0 ffffffff 0 800] ------- [0:255 -1:255 28 0] [0x2 3 1 [3 0] [6 4]] (REQUEST)
r 1.018797136 _4_ MAC  --- 0 AODV 48 [0 ffffffff 0 800] ------- [0:255 -1:255 28 0] [0x2 3 1 [3 0] [6 4]] (REQUEST)
r 1.018797229 _1_ MAC  --- 0 AODV 48 [0 ffffffff 0 800] ------- [0:255 -1:255 28 0] [0x2 3 1 [3 0] [6 4]] (REQUEST)
r 1.018822096 _3_ RTR  --- 0 AODV 48 [0 ffffffff 0 800] ------- [0:255 -1:255 28 0] [0x2 3 1 [3 0] [6 4]] (REQUEST)
r 1.018822136 _4_ RTR  --- 0 AODV 48 [0 ffffffff 0 800] ------- [0:255 -1:255 28 0] [0x2 3 1 [3 0] [6 4]] (REQUEST)
r 1.018822229 _1_ RTR  --- 0 AODV 48 [0 ffffffff 0 800] ------- [0:255 -1:255 28 0] [0x2 3 1 [3 0] [6 4]] (REQUEST)
s 1.019067136 _4_ MAC  --- 0 RTS 44 [52e 3 4 0] 
r 1.019419551 _3_ MAC  --- 0 RTS 44 [52e 3 4 0] 
s 1.019429551 _3_ MAC  --- 0 CTS 38 [3f4 4 0 0] 
r 1.019733965 _4_ MAC  --- 0 CTS 38 [3f4 4 0 0] 
s 1.019743965 _4_ MAC  --- 0 ARP 86 [13a 3 4 806] ------- [REPLY 4/4 3/3]
r 1.020432380 _3_ MAC  --- 0 ARP 28 [13a 3 4 806] ------- [REPLY 4/4 3/3]
s 1.020442380 _3_ MAC  --- 0 ACK 38 [0 4 0 0] 
r 1.020746795 _4_ MAC  --- 0 ACK 38 [0 4 0 0] 
s 1.020917190 _5_ MAC  --- 0 AODV 106 [0 ffffffff 5 800] ------- [5:255 -1:255 29 0] [0x2 2 1 [0 0] [2 4]] (REQUEST)
r 1.021765428 _6_ MAC  --- 0 AODV 48 [0 ffffffff 5 800] ------- [5:255 -1:255 29 0] [0x2 2 1 [0 0] [2 4]] (REQUEST)
r 1.021765657 _7_ MAC  --- 0 AODV 48 [0 ffffffff 5 800] ------- [5:255 -1:255 29 0] [0x2 2 1 [0 0] [2 4]] (REQUEST)
r 1.021765687 _4_ MAC  --- 0 AODV 48 [0 ffffffff 5 800] ------- [5:255 -1:255 29 0] [0x2 2 1 [0 0] [2 4]] (REQUEST)
r 1.021765879 _2_ MAC  --- 0 AODV 48 [0 ffffffff 5 800] ------- [5:255 -1:255 29 0] [0x2 2 1 [0 0] [2 4]] (REQUEST)
r 1.021765891 _1_ MAC  --- 0 AODV 48 [0 ffffffff 5 800] ------- [5:255 -1:255 29 0] [0x2 2 1 [0 0] [2 4]] (REQUEST)
r 1.021766000 _3_ MAC  --- 0 AODV 48 [0 ffffffff 5 800] ------- [5:255 -1:255 29 0] [0x2 2 1 [0 0] [2 4]] (REQUEST)
r 1.021790428 _6_ RTR  --- 0 AODV 48 [0 ffffffff 5 800] ------- [5:255 -1:255 29 0] [0x2 2 1 [0 0] [2 4]] (REQUEST)
r 1.021790657 _7_ RTR  --- 0 AODV 48 [0 ffffffff 5 800] ------- [5:255 -1:255 29 0] [0x2 2 1 [0 0] [2 4]] (REQUEST)
r 1.021790687 _4_ RTR  --- 0 AODV 48 [0 ffffffff 5 800] ------- [5:255 -1:255 29 0] [0x2 2 1 [0 0] [2 4]] (REQUEST)
r 1.021790879 _2_ RTR  --- 0 AODV 48 [0 ffffffff 5 800] ------- [5:255 -1:255 29 0] [0x2 2 1 [0 0] [2 4]] (REQUEST)
r 1.021790891 _1_ RTR  --- 0 AODV 48 [0 ffffffff 5 800] ------- [5:255 -1:255 29 0] [0x2 2 1 [0 0] [2 4]] (REQUEST)
r 1.021791000 _3_ RTR  --- 0 AODV 48 [0 ffffffff 5 800] ------- [5:255 -1:255 29 0] [0x2 2 1 [0 0] [2 4]] (REQUEST)
s 1.021835879 _2_ MAC  --- 0 AODV 106 [0 ffffffff 2 800] ------- [2:255 -1:255 29 0] [0x2 2 1 [3 0] [6 4]] (REQUEST)
r 1.022684203 _1_ MAC  --- 0 AODV 48 [0 ffffffff 2 800] ------- [2:255 -1:255 29 0] [0x2 2 1 [3 0] [6 4]] (REQUEST)
r 1.022684331 _6_ MAC  --- 0 AODV 48 [0 ffffffff 2 800] ------- [2:255 -1:255 29 0] [0x2 2 1 [3 0] [6 4]] (REQUEST)
r 1.022684456 _7_ MAC  --- 0 AODV 48 [0 ffffffff 2 800] ------- [2:255 -1:255 29 0] [0x2 2 1 [3 0] [6 4]] (REQUEST)
r 1.022684568 _5_ MAC  --- 0 AODV 48 [0 ffffffff 2 800] ------- [2:255 -1:255 29 0] [0x2 2 1 [3 0] [6 4]] (REQUEST)
r 1.022684588 _4_ MAC  --- 0 AODV 48 [0 ffffffff 2 800] ------- [2:255 -1:255 29 0] [0x2 2 1 [3 0] [6 4]] (REQUEST)
r 1.022709203 _1_ RTR  --- 0 AODV 48 [0 ffffffff 2 800] ------- [2:255 -1:255 29 0] [0x2 2 1 [3 0] [6 4]] (REQUEST)
r 1.022709331 _6_ RTR  --- 0 AODV 48 [0 ffffffff 2 800] ------- [2:255 -1:255 29 0] [0x2 2 1 [3 0] [6 4]] (REQUEST)
r 1.022709456 _7_ RTR  --- 0 AODV 48 [0 ffffffff 2 800] ------- [2:255 -1:255 29 0] [0x2 2 1 [3 0] [6 4]] (REQUEST)
r 1.022709568 _5_ RTR  --- 0 AODV 48 [0 ffffffff 2 800] ------- [2:255 -1:255 29 0] [0x2 2 1 [3 0] [6 4]] (REQUEST)
r 1.022709588 _4_ RTR  --- 0 AODV 48 [0 ffffffff 2 800] ------- [2:255 -1:255 29 0] [0x2 2 1 [3 0] [6 4]] (REQUEST)
s 1.022774568 _5_ MAC  --- 0 AODV 106 [0 ffffffff 5 800] ------- [5:255 -1:255 29 0] [0x2 2 1 [3 0] [6 4]] (REQUEST)
r 1.023622806 _6_ MAC  --- 0 AODV 48 [0 ffffffff 5 800] ------- [5:255 -1:255 29 0] [0x2 2 1 [3 0] [6 4]] (REQUEST)
r 1.023623034 _7_ MAC  --- 0 AODV 48 [0 ffffffff 5 800] ------- [5:255 -1:255 29 0] [0x2 2 1 [3 0] [6 4]] (REQUEST)
r 1.023623064 _4_ MAC  --- 0 AODV 48 [0 ffffffff 5 800] ------- [5:255 -1:255 29 0] [0x2 2 1 [3 0] [6 4]] (REQUEST)
r 1.023623257 _2_ MAC  --- 0 AODV 48 [0 ffffffff 5 800] ------- [5:255 -1:255 29 0] [0x2 2 1 [3 0] [6 4]] (REQUEST)
r 1.023623269 _1_ MAC  --- 0 AODV 48 [0 ffffffff 5 800] ------- [5:255 -1:255 29 0] [0x2 2 1 [3 0] [6 4]] (REQUEST)
r 1.023623378 _3_ MAC  --- 0 AODV 48 [0 ffffffff 5 800] ------- [5:255 -1:255 29 0] [0x2 2 1 [3 0] [6 4]] (REQUEST)
r 1.023647806 _6_ RTR  --- 0 AODV 48 [0 ffffffff 5 800] ------- [5:255 -1:255 29 0] [0x2 2 1 [3 0] [6 4]] (REQUEST)
r 1.023648034 _7_ RTR  --- 0 AODV 48 [0 ffffffff 5 800] ------- [5:255 -1:255 29 0] [0x2 2 1 [3 0] [6 4]] (REQUEST)
r 1.023648064 _4_ RTR  --- 0 AODV 48 [0 ffffffff 5 800] ------- [5:255 -1:255 29 0] [0x2 2 1 [3 0] [6 4]] (REQUEST)
r 1.023648257 _2_ RTR  --- 0 AODV 48 [0 ffffffff 5 800] ------- [5:255 -1:255 29 0] [0x2 2 1 [3 0] [6 4]] (REQUEST)
r 1.023648269 _1_ RTR  --- 0 AODV 48 [0 ffffffff 5 800] ------- [5:255 -1:255 29 0] [0x2 2 1 [3 0] [6 4]] (REQUEST)
r 1.023648378 _3_ RTR  --- 0 AODV 48 [0 ffffffff 5 800] ------- [5:255 -1:255 29 0] [0x2 2 1 [3 0] [6 4]] (REQUEST)
s 1.023753257 _2_ MAC  --- 0 RTS 44 [52e 4 2 0] 
r 1.024105965 _4_ MAC  --- 0 RTS 44 [52e 4 2 0] 
s 1.024115965 _4_ MAC  --- 0 CTS 38 [3f4 2 0 0] 
r 1.024420674 _2_ MAC  --- 0 CTS 38 [3f4 2 0 0] 
s 1.024430674 _2_ MAC  --- 0 ARP 86 [13a 4 2 806] ------- [REPLY 2/2 4/4]
r 1.025119383 _4_ MAC  --- 0 ARP 28 [13a 4 2 806] ------- [REPLY 2/2 4/4]
s 1.025129383 _4_ MAC  --- 0 ACK 38 [0 2 0 0] 
r 1.025434091 _2_ MAC  --- 0 ACK 38 [0 2 0 0] 
s 1.025593791 _3_ MAC  --- 0 RTS 44 [5ae 4 3 0] 
r 1.025946206 _4_ MAC  --- 0 RTS 44 [5ae 4 3 0] 
s 1.025956206 _4_ MAC  --- 0 CTS 38 [474 3 0 0] 
r 1.026260621 _3_ MAC  --- 0 CTS 38 [474 3 0 0] 
s 1.026270621 _3_ MAC  --- 0 AODV 102 [13a 4 3 800] ------- [3:255 6:255 30 4] [0x4 1 [3 4] 10.000000] (REPLY)
r 1.027087036 _4_ MAC  --- 0 AODV 44 [13a 4 3 800] ------- [3:255 6:255 30 4] [0x4 1 [3 4] 10.000000] (REPLY)
s 1.027097036 _4_ MAC  --- 0 ACK 38 [0 3 0 0] 
r 1.027112036 _4_ RTR  --- 0 AODV 44 [13a 4 3 800] ------- [3:255 6:255 30 4] [0x4 1 [3 4] 10.000000] (REPLY)
f 1.027112036 _4_ RTR  --- 0 AODV 44 [13a 4 3 800] ------- [3:255 6:255 29 6] [0x4 2 [3 4] 10.000000] (REPLY)
r 1.027401450 _3_ MAC  --- 0 ACK 38 [0 3 0 0] 
s 1.027671036 _4_ MAC  --- 0 RTS 44 [5ae 2 4 0] 
r 1.028023744 _2_ MAC  --- 0 RTS 44 [5ae 2 4 0] 
s 1.028033744 _2_ MAC  --- 0 CTS 38 [474 4 0 0] 
r 1.028338453 _4_ MAC  --- 0 CTS 38 [474 4 0 0] 
s 1.028348453 _4_ MAC  --- 0 AODV 102 [13a 2 4 800] ------- [0:255 2:255 29 2] [0x4 2 [0 4] 10.000000] (REPLY)
r 1.029165162 _2_ MAC  --- 0 AODV 44 [13a 2 4 800] ------- [0:255 2:255 29 2] [0x4 2 [0 4] 10.000000] (REPLY)
s 1.029175162 _2_ MAC  --- 0 ACK 38 [0 4 0 0] 
r 1.029190162 _2_ RTR  --- 0 AODV 44 [13a 2 4 800] ------- [0:255 2:255 29 2] [0x4 2 [0 4] 10.000000] (REPLY)
s 1.029190162 _2_ RTR  --- 0 tcp 40 [0 0 0 0] ------- [2:0 0:0 30 4] [0 0] 0 0
r 1.029479870 _4_ MAC  --- 0 ACK 38 [0 4 0 0] 
s 1.029709870 _4_ MAC  --- 0 ARP 86 [0 ffffffff 4 806] ------- [REQUEST 4/4 0/6]
r 1.030398285 _3_ MAC  --- 0 ARP 28 [0 ffffffff 4 806] ------- [REQUEST 4/4 0/6]
r 1.030398361 _1_ MAC  --- 0 ARP 28 [0 ffffffff 4 806] ------- [REQUEST 4/4 0/6]
r 1.030398364 _6_ MAC  --- 0 ARP 28 [0 ffffffff 4 806] ------- [REQUEST 4/4 0/6]
r 1.030398367 _5_ MAC  --- 0 ARP 28 [0 ffffffff 4 806] ------- [REQUEST 4/4 0/6]
r 1.030398498 _0_ MAC  --- 0 ARP 28 [0 ffffffff 4 806] ------- [REQUEST 4/4 0/6]
r 1.030398579 _2_ MAC  --- 0 ARP 28 [0 ffffffff 4 806] ------- [REQUEST 4/4 0/6]
s 1.030508579 _2_ MAC  --- 0 RTS 44 [58e 4 2 0] 
r 1.030861288 _4_ MAC  --- 0 RTS 44 [58e 4 2 0] 
s 1.030871288 _4_ MAC  --- 0 CTS 38 [454 2 0 0] 
r 1.031175996 _2_ MAC  --- 0 CTS 38 [454 2 0 0] 
s 1.031185996 _2_ MAC  --- 0 tcp 98 [13a 4 2 800] ------- [2:0 0:0 30 4] [0 0] 0 0
r 1.031970705 _4_ MAC  --- 0 tcp 40 [13a 4 2 800] ------- [2:0 0:0 30 4] [0 0] 1 0
s 1.031980705 _4_ MAC  --- 0 ACK 38 [0 2 0 0] 
r 1.031995705 _4_ RTR  --- 0 tcp 40 [13a 4 2 800] ------- [2:0 0:0 30 4] [0 0] 1 0
f 1.031995705 _4_ RTR  --- 0 tcp 40 [13a 4 2 800] ------- [2:0 0:0 29 0] [0 0] 1 0
r 1.032285414 _2_ MAC  --- 0 ACK 38 [0 2 0 0] 
s 1.032405114 _3_ MAC  --- 0 AODV 106 [0 ffffffff 3 800] ------- [3:255 -1:255 28 0] [0x2 3 1 [0 0] [2 4]] (REQUEST)
r 1.033253528 _4_ MAC  --- 0 AODV 48 [0 ffffffff 3 800] ------- [3:255 -1:255 28 0] [0x2 3 1 [0 0] [2 4]] (REQUEST)
r 1.033253701 _0_ MAC  --- 0 AODV 48 [0 ffffffff 3 800] ------- [3:255 -1:255 28 0] [0x2 3 1 [0 0] [2 4]] (REQUEST)
r 1.033253924 _5_ MAC  --- 0 AODV 48 [0 ffffffff 3 800] ------- [3:255 -1:255 28 0] [0x2 3 1 [0 0] [2 4]] (REQUEST)
r 1.033278528 _4_ RTR  --- 0 AODV 48 [0 ffffffff 3 800] ------- [3:255 -1:255 28 0] [0x2 3 1 [0 0] [2 4]] (REQUEST)
r 1.033278701 _0_ RTR  --- 0 AODV 48 [0 ffffffff 3 800] ------- [3:255 -1:255 28 0] [0x2 3 1 [0 0] [2 4]] (REQUEST)
r 1.033278924 _5_ RTR  --- 0 AODV 48 [0 ffffffff 3 800] ------- [3:255 -1:255 28 0] [0x2 3 1 [0 0] [2 4]] (REQUEST)
s 1.033463528 _4_ MAC  --- 0 RTS 44 [58e 0 4 0] 
r 1.033816156 _0_ MAC  --- 0 RTS 44 [58e 0 4 0] 
s 1.033826156 _0_ MAC  --- 0 CTS 38 [454 4 0 0] 
r 1.034130783 _4_ MAC  --- 0 CTS 38 [454 4 0 0] 
s 1.034140783 _4_ MAC  --- 0 tcp 98 [13a 0 4 800] ------- [2:0 0:0 29 0] [0 0] 1 0
r 1.034925411 _0_ MAC  --- 0 tcp 40 [13a 0 4 800] ------- [2:0 0:0 29 0] [0 0] 2 0
s 1.034935411 _0_ MAC  --- 0 ACK 38 [0 4 0 0] 
r 1.034950411 _0_ AGT  --- 0 tcp 40 [13a 0 4 800] ------- [2:0 0:0 29 0] [0 0] 2 0
s 1.034950411 _0_ AGT  --- 2 ack 40 [0 0 0 0] ------- [0:0 2:0 32 0] [0 0] 0 0
r 1.034950411 _0_ RTR  --- 2 ack 40 [0 0 0 0] ------- [0:0 2:0 32 0] [0 0] 0 0
s 1.034950411 _0_ RTR  --- 2 ack 40 [0 0 0 0] ------- [0:0 2:0 30 4] [0 0] 0 0
r 1.035240038 _4_ MAC  --- 0 ACK 38 [0 4 0 0] 
s 1.035609411 _0_ MAC  --- 0 RTS 44 [58e 4 0 0] 
r 1.035962038 _4_ MAC  --- 0 RTS 44 [58e 4 0 0] 
s 1.035972038 _4_ MAC  --- 0 CTS 38 [454 0 0 0] 
r 1.036276665 _0_ MAC  --- 0 CTS 38 [454 0 0 0] 
s 1.036286665 _0_ MAC  --- 2 ack 98 [13a 4 0 800] ------- [0:0 2:0 30 4] [0 0] 0 0
r 1.037071293 _4_ MAC  --- 2 ack 40 [13a 4 0 800] ------- [0:0 2:0 30 4] [0 0] 1 0
s 1.037081293 _4_ MAC  --- 0 ACK 38 [0 0 0 0] 
r 1.037096293 _4_ RTR  --- 2 ack 40 [13a 4 0 800] ------- [0:0 2:0 30 4] [0 0] 1 0
f 1.037096293 _4_ RTR  --- 2 ack 40 [13a 4 0 800] ------- [0:0 2:0 29 2] [0 0] 1 0
r 1.037385920 _0_ MAC  --- 0 ACK 38 [0 0 0 0] 
s 1.037655293 _4_ MAC  --- 0 RTS 44 [58e 2 4 0] 
r 1.038008001 _2_ MAC  --- 0 RTS 44 [58e 2 4 0] 
s 1.038018001 _2_ MAC  --- 0 CTS 38 [454 4 0 0] 
r 1.038322710 _4_ MAC  --- 0 CTS 38 [454 4 0 0] 
s 1.038332710 _4_ MAC  --- 2 ack 98 [13a 2 4 800] ------- [0:0 2:0 29 2] [0 0] 1 0
r 1.039117419 _2_ MAC  --- 2 ack 40 [13a 2 4 800] ------- [0:0 2:0 29 2] [0 0] 2 0
s 1.039127419 _2_ MAC  --- 0 ACK 38 [0 4 0 0] 
r 1.039142419 _2_ AGT  --- 2 ack 40 [13a 2 4 800] ------- [0:0 2:0 29 2] [0 0] 2 0
s 1.039142419 _2_ AGT  --- 3 tcp 1540 [0 0 0 0] ------- [2:0 0:0 32 0] [1 0] 0 0
r 1.039142419 _2_ RTR  --- 3 tcp 1540 [0 0 0 0] ------- [2:0 0:0 32 0] [1 0] 0 0
s 1.039142419 _2_ AGT  --- 4 tcp 1540 [0 0 0 0] ------- [2:0 0:0 32 0] [2 0] 0 0
r 1.039142419 _2_ RTR  --- 4 tcp 1540 [0 0 0 0] ------- [2:0 0:0 32 0] [2 0] 0 0
s 1.039142419 _2_ RTR  --- 3 tcp 1540 [0 0 0 0] ------- [2:0 0:0 30 4] [1 0] 0 0
s 1.039142419 _2_ RTR  --- 4 tcp 1540 [0 0 0 0] ------- [2:0 0:0 30 4] [2 0] 0 0
r 1.039432127 _4_ MAC  --- 0 ACK 38 [0 4 0 0] 
s 1.039701871 _6_ MAC  --- 0 RTS 44 [52e 4 6 0] 
r 1.040054364 _4_ MAC  --- 0 RTS 44 [52e 4 6 0] 
s 1.040064364 _4_ MAC  --- 0 CTS 38 [3f4 6 0 0] 
r 1.040368858 _6_ MAC  --- 0 CTS 38 [3f4 6 0 0] 
s 1.040378858 _6_ MAC  --- 0 ARP 86 [13a 4 6 806] ------- [REPLY 6/6 4/4]
r 1.041067351 _4_ MAC  --- 0 ARP 28 [13a 4 6 806] ------- [REPLY 6/6 4/4]
s 1.041077351 _4_ MAC  --- 0 ACK 38 [0 6 0 0] 
r 1.041381845 _6_ MAC  --- 0 ACK 38 [0 6 0 0] 
s 1.041512060 _2_ MAC  --- 0 RTS 44 [346e 4 2 0] 
r 1.041864769 _4_ MAC  --- 0 RTS 44 [346e 4 2 0] 
s 1.041874769 _4_ MAC  --- 0 CTS 38 [3334 2 0 0] 
r 1.042179477 _2_ MAC  --- 0 CTS 38 [3334 2 0 0] 
s 1.042189477 _2_ MAC  --- 3 tcp 1598 [13a 4 2 800] ------- [2:0 0:0 30 4] [1 0] 0 0
r 1.054974186 _4_ MAC  --- 3 tcp 1540 [13a 4 2 800] ------- [2:0 0:0 30 4] [1 0] 1 0
s 1.054984186 _4_ MAC  --- 0 ACK 38 [0 2 0 0] 
r 1.054999186 _4_ RTR  --- 3 tcp 1540 [13a 4 2 800] ------- [2:0 0:0 30 4] [1 0] 1 0
f 1.054999186 _4_ RTR  --- 3 tcp 1540 [13a 4 2 800] ------- [2:0 0:0 29 0] [1 0] 1 0
r 1.055288895 _2_ MAC  --- 0 ACK 38 [0 2 0 0] 
s 1.055498186 _4_ MAC  --- 0 RTS 44 [5ae 6 4 0] 
r 1.055850680 _6_ MAC  --- 0 RTS 44 [5ae 6 4 0] 
s 1.055860680 _6_ MAC  --- 0 CTS 38 [474 4 0 0] 
r 1.056165173 _4_ MAC  --- 0 CTS 38 [474 4 0 0] 
s 1.056175173 _4_ MAC  --- 0 AODV 102 [13a 6 4 800] ------- [3:255 6:255 29 6] [0x4 2 [3 4] 10.000000] (REPLY)
r 1.056991667 _6_ MAC  --- 0 AODV 44 [13a 6 4 800] ------- [3:255 6:255 29 6] [0x4 2 [3 4] 10.000000] (REPLY)
s 1.057001667 _6_ MAC  --- 0 ACK 38 [0 4 0 0] 