n -t * -s 0  -x 191 -y 327 -Z 0 -z 20  -v circle -c green
n -t * -s 1  -x 406 -y 349 -Z 0 -z 20  -v circle -c green
n -t * -s 2  -x 503 -y 356 -Z 0 -z 20  -v circle -c green
n -t * -s 3  -x 234 -y 156 -Z 0 -z 20  -v circle -c green
n -t * -s 4  -x 343 -y 216 -Z 0 -z 20  -v circle -c green
n -t * -s 5  -x 477 -y 151 -Z 0 -z 20  -v circle -c green
n -t * -s 6  -x 491 -y 221 -Z 0 -z 20  -v circle -c green
n -t * -s 7  -x 602 -y 214 -Z 0 -z 20  -v circle -c green
V -t * -v 1.0a5 -a 0
W -t * -x 1077 -y 456
A -t * -n 1 -p 0 -o 0x7fffffff -c 30 -a 1
A -t * -h 1 -m 1073741823 -s 0
+ -t 0.031500112 -s 0 -d -1 -p message -e 32 -c 2 -a 0 -i 0 -k RTR 
- -t 0.031500112 -s 0 -d -1 -p message -e 32 -c 2 -a 0 -i 0 -k RTR
h -t 0.031500112 -s 0 -d -1 -p message -e 32 -c 2 -a 0 -i 0 -k RTR
+ -t 0.031615112 -s 0 -d -1 -p message -e 90 -c 2 -a 0 -i 0 -k MAC 
- -t 0.031615112 -s 0 -d -1 -p message -e 90 -c 2 -a 0 -i 0 -k MAC
h -t 0.031615112 -s 0 -d -1 -p message -e 90 -c 2 -a 0 -i 0 -k MAC
r -t 0.032335700 -s 3 -d -1 -p message -e 32 -c 2 -a 0 -i 0 -k MAC
r -t 0.032335739 -s 4 -d -1 -p message -e 32 -c 2 -a 0 -i 0 -k MAC
r -t 0.032335832 -s 1 -d -1 -p message -e 32 -c 2 -a 0 -i 0 -k MAC
r -t 0.032360700 -s 3 -d -1 -p message -e 32 -c 2 -a 0 -i 0 -k RTR
r -t 0.032360739 -s 4 -d -1 -p message -e 32 -c 2 -a 0 -i 0 -k RTR
r -t 0.032360832 -s 1 -d -1 -p message -e 32 -c 2 -a 0 -i 0 -k RTR
+ -t 0.182646019 -s 1 -d -1 -p message -e 32 -c 2 -a 0 -i 1 -k RTR 
- -t 0.182646019 -s 1 -d -1 -p message -e 32 -c 2 -a 0 -i 1 -k RTR
h -t 0.182646019 -s 1 -d -1 -p message -e 32 -c 2 -a 0 -i 1 -k RTR
+ -t 0.182961019 -s 1 -d -1 -p message -e 90 -c 2 -a 0 -i 1 -k MAC 
- -t 0.182961019 -s 1 -d -1 -p message -e 90 -c 2 -a 0 -i 1 -k MAC
h -t 0.182961019 -s 1 -d -1 -p message -e 90 -c 2 -a 0 -i 1 -k MAC
r -t 0.183681343 -s 2 -d -1 -p message -e 32 -c 2 -a 0 -i 1 -k MAC
r -t 0.183681510 -s 4 -d -1 -p message -e 32 -c 2 -a 0 -i 1 -k MAC
r -t 0.183681531 -s 6 -d -1 -p message -e 32 -c 2 -a 0 -i 1 -k MAC
r -t 0.183681720 -s 5 -d -1 -p message -e 32 -c 2 -a 0 -i 1 -k MAC
r -t 0.183681740 -s 0 -d -1 -p message -e 32 -c 2 -a 0 -i 1 -k MAC
r -t 0.183681813 -s 7 -d -1 -p message -e 32 -c 2 -a 0 -i 1 -k MAC
r -t 0.183706343 -s 2 -d -1 -p message -e 32 -c 2 -a 0 -i 1 -k RTR
r -t 0.183706510 -s 4 -d -1 -p message -e 32 -c 2 -a 0 -i 1 -k RTR
r -t 0.183706531 -s 6 -d -1 -p message -e 32 -c 2 -a 0 -i 1 -k RTR
r -t 0.183706720 -s 5 -d -1 -p message -e 32 -c 2 -a 0 -i 1 -k RTR
r -t 0.183706740 -s 0 -d -1 -p message -e 32 -c 2 -a 0 -i 1 -k RTR
r -t 0.183706813 -s 7 -d -1 -p message -e 32 -c 2 -a 0 -i 1 -k RTR
+ -t 0.470951556 -s 6 -d -1 -p message -e 32 -c 2 -a 0 -i 2 -k RTR 
- -t 0.470951556 -s 6 -d -1 -p message -e 32 -c 2 -a 0 -i 2 -k RTR
h -t 0.470951556 -s 6 -d -1 -p message -e 32 -c 2 -a 0 -i 2 -k RTR
+ -t 0.471346556 -s 6 -d -1 -p message -e 90 -c 2 -a 0 -i 2 -k MAC 
- -t 0.471346556 -s 6 -d -1 -p message -e 90 -c 2 -a 0 -i 2 -k MAC
h -t 0.471346556 -s 6 -d -1 -p message -e 90 -c 2 -a 0 -i 2 -k MAC
r -t 0.472066794 -s 5 -d -1 -p message -e 32 -c 2 -a 0 -i 2 -k MAC
r -t 0.472066927 -s 7 -d -1 -p message -e 32 -c 2 -a 0 -i 2 -k MAC
r -t 0.472067008 -s 2 -d -1 -p message -e 32 -c 2 -a 0 -i 2 -k MAC
r -t 0.472067050 -s 4 -d -1 -p message -e 32 -c 2 -a 0 -i 2 -k MAC
r -t 0.472067068 -s 1 -d -1 -p message -e 32 -c 2 -a 0 -i 2 -k MAC
r -t 0.472091794 -s 5 -d -1 -p message -e 32 -c 2 -a 0 -i 2 -k RTR
r -t 0.472091927 -s 7 -d -1 -p message -e 32 -c 2 -a 0 -i 2 -k RTR
r -t 0.472092008 -s 2 -d -1 -p message -e 32 -c 2 -a 0 -i 2 -k RTR
r -t 0.472092050 -s 4 -d -1 -p message -e 32 -c 2 -a 0 -i 2 -k RTR
r -t 0.472092068 -s 1 -d -1 -p message -e 32 -c 2 -a 0 -i 2 -k RTR
+ -t 0.628504423 -s 4 -d -1 -p message -e 32 -c 2 -a 0 -i 3 -k RTR 
- -t 0.628504423 -s 4 -d -1 -p message -e 32 -c 2 -a 0 -i 3 -k RTR
h -t 0.628504423 -s 4 -d -1 -p message -e 32 -c 2 -a 0 -i 3 -k RTR
+ -t 0.628819423 -s 4 -d -1 -p message -e 90 -c 2 -a 0 -i 3 -k MAC 
- -t 0.628819423 -s 4 -d -1 -p message -e 90 -c 2 -a 0 -i 3 -k MAC
h -t 0.628819423 -s 4 -d -1 -p message -e 90 -c 2 -a 0 -i 3 -k MAC
r -t 0.629539838 -s 3 -d -1 -p message -e 32 -c 2 -a 0 -i 3 -k MAC
r -t 0.629539913 -s 1 -d -1 -p message -e 32 -c 2 -a 0 -i 3 -k MAC
r -t 0.629539916 -s 6 -d -1 -p message -e 32 -c 2 -a 0 -i 3 -k MAC
r -t 0.629539919 -s 5 -d -1 -p message -e 32 -c 2 -a 0 -i 3 -k MAC
r -t 0.629540050 -s 0 -d -1 -p message -e 32 -c 2 -a 0 -i 3 -k MAC
r -t 0.629540131 -s 2 -d -1 -p message -e 32 -c 2 -a 0 -i 3 -k MAC
r -t 0.629564838 -s 3 -d -1 -p message -e 32 -c 2 -a 0 -i 3 -k RTR
r -t 0.629564913 -s 1 -d -1 -p message -e 32 -c 2 -a 0 -i 3 -k RTR
r -t 0.629564916 -s 6 -d -1 -p message -e 32 -c 2 -a 0 -i 3 -k RTR
r -t 0.629564919 -s 5 -d -1 -p message -e 32 -c 2 -a 0 -i 3 -k RTR
r -t 0.629565050 -s 0 -d -1 -p message -e 32 -c 2 -a 0 -i 3 -k RTR
r -t 0.629565131 -s 2 -d -1 -p message -e 32 -c 2 -a 0 -i 3 -k RTR
+ -t 0.889269832 -s 2 -d -1 -p message -e 32 -c 2 -a 0 -i 4 -k RTR 
- -t 0.889269832 -s 2 -d -1 -p message -e 32 -c 2 -a 0 -i 4 -k RTR
h -t 0.889269832 -s 2 -d -1 -p message -e 32 -c 2 -a 0 -i 4 -k RTR
+ -t 0.889744832 -s 2 -d -1 -p message -e 90 -c 2 -a 0 -i 4 -k MAC 
- -t 0.889744832 -s 2 -d -1 -p message -e 90 -c 2 -a 0 -i 4 -k MAC
h -t 0.889744832 -s 2 -d -1 -p message -e 90 -c 2 -a 0 -i 4 -k MAC
r -t 0.890465157 -s 1 -d -1 -p message -e 32 -c 2 -a 0 -i 4 -k MAC
r -t 0.890465284 -s 6 -d -1 -p message -e 32 -c 2 -a 0 -i 4 -k MAC
r -t 0.890465409 -s 7 -d -1 -p message -e 32 -c 2 -a 0 -i 4 -k MAC
r -t 0.890465521 -s 5 -d -1 -p message -e 32 -c 2 -a 0 -i 4 -k MAC
r -t 0.890465541 -s 4 -d -1 -p message -e 32 -c 2 -a 0 -i 4 -k MAC
r -t 0.890490157 -s 1 -d -1 -p message -e 32 -c 2 -a 0 -i 4 -k RTR
r -t 0.890490284 -s 6 -d -1 -p message -e 32 -c 2 -a 0 -i 4 -k RTR
r -t 0.890490409 -s 7 -d -1 -p message -e 32 -c 2 -a 0 -i 4 -k RTR
r -t 0.890490521 -s 5 -d -1 -p message -e 32 -c 2 -a 0 -i 4 -k RTR
r -t 0.890490541 -s 4 -d -1 -p message -e 32 -c 2 -a 0 -i 4 -k RTR
+ -t 1.000000000 -s 2 -d -1 -p tcp -e 40 -c 2 -a 0 -i 5 -k AGT 
- -t 1.000000000 -s 2 -d -1 -p tcp -e 40 -c 2 -a 0 -i 5 -k AGT
h -t 1.000000000 -s 2 -d -1 -p tcp -e 40 -c 2 -a 0 -i 5 -k AGT
+ -t 1.000000000 -s 6 -d -1 -p tcp -e 40 -c 2 -a 0 -i 6 -k AGT 
- -t 1.000000000 -s 6 -d -1 -p tcp -e 40 -c 2 -a 0 -i 6 -k AGT
h -t 1.000000000 -s 6 -d -1 -p tcp -e 40 -c 2 -a 0 -i 6 -k AGT
+ -t 1.280142543 -s 7 -d -1 -p message -e 32 -c 2 -a 0 -i 7 -k RTR 
- -t 1.280142543 -s 7 -d -1 -p message -e 32 -c 2 -a 0 -i 7 -k RTR
h -t 1.280142543 -s 7 -d -1 -p message -e 32 -c 2 -a 0 -i 7 -k RTR
+ -t 1.280517543 -s 7 -d -1 -p message -e 90 -c 2 -a 0 -i 7 -k MAC 
- -t 1.280517543 -s 7 -d -1 -p message -e 90 -c 2 -a 0 -i 7 -k MAC
h -t 1.280517543 -s 7 -d -1 -p message -e 90 -c 2 -a 0 -i 7 -k MAC
r -t 1.281237914 -s 6 -d -1 -p message -e 32 -c 2 -a 0 -i 7 -k MAC
r -t 1.281238009 -s 5 -d -1 -p message -e 32 -c 2 -a 0 -i 7 -k MAC
r -t 1.281238120 -s 2 -d -1 -p message -e 32 -c 2 -a 0 -i 7 -k MAC
r -t 1.281238336 -s 1 -d -1 -p message -e 32 -c 2 -a 0 -i 7 -k MAC
r -t 1.281262914 -s 6 -d -1 -p message -e 32 -c 2 -a 0 -i 7 -k RTR
r -t 1.281263009 -s 5 -d -1 -p message -e 32 -c 2 -a 0 -i 7 -k RTR
r -t 1.281263120 -s 2 -d -1 -p message -e 32 -c 2 -a 0 -i 7 -k RTR
r -t 1.281263336 -s 1 -d -1 -p message -e 32 -c 2 -a 0 -i 7 -k RTR
+ -t 1.607360362 -s 3 -d -1 -p message -e 32 -c 2 -a 0 -i 8 -k RTR 
- -t 1.607360362 -s 3 -d -1 -p message -e 32 -c 2 -a 0 -i 8 -k RTR
h -t 1.607360362 -s 3 -d -1 -p message -e 32 -c 2 -a 0 -i 8 -k RTR
+ -t 1.607715362 -s 3 -d -1 -p message -e 90 -c 2 -a 0 -i 8 -k MAC 
- -t 1.607715362 -s 3 -d -1 -p message -e 90 -c 2 -a 0 -i 8 -k MAC
h -t 1.607715362 -s 3 -d -1 -p message -e 90 -c 2 -a 0 -i 8 -k MAC
r -t 1.608435776 -s 4 -d -1 -p message -e 32 -c 2 -a 0 -i 8 -k MAC
r -t 1.608435949 -s 0 -d -1 -p message -e 32 -c 2 -a 0 -i 8 -k MAC
r -t 1.608436172 -s 5 -d -1 -p message -e 32 -c 2 -a 0 -i 8 -k MAC
r -t 1.608460776 -s 4 -d -1 -p message -e 32 -c 2 -a 0 -i 8 -k RTR
r -t 1.608460949 -s 0 -d -1 -p message -e 32 -c 2 -a 0 -i 8 -k RTR
r -t 1.608461172 -s 5 -d -1 -p message -e 32 -c 2 -a 0 -i 8 -k RTR
+ -t 1.634825755 -s 5 -d -1 -p message -e 32 -c 2 -a 0 -i 9 -k RTR 
- -t 1.634825755 -s 5 -d -1 -p message -e 32 -c 2 -a 0 -i 9 -k RTR
h -t 1.634825755 -s 5 -d -1 -p message -e 32 -c 2 -a 0 -i 9 -k RTR
+ -t 1.635120755 -s 5 -d -1 -p message -e 90 -c 2 -a 0 -i 9 -k MAC 
- -t 1.635120755 -s 5 -d -1 -p message -e 90 -c 2 -a 0 -i 9 -k MAC
h -t 1.635120755 -s 5 -d -1 -p message -e 90 -c 2 -a 0 -i 9 -k MAC
r -t 1.635840993 -s 6 -d -1 -p message -e 32 -c 2 -a 0 -i 9 -k MAC
r -t 1.635841222 -s 7 -d -1 -p message -e 32 -c 2 -a 0 -i 9 -k MAC
r -t 1.635841252 -s 4 -d -1 -p message -e 32 -c 2 -a 0 -i 9 -k MAC
r -t 1.635841444 -s 2 -d -1 -p message -e 32 -c 2 -a 0 -i 9 -k MAC
r -t 1.635841456 -s 1 -d -1 -p message -e 32 -c 2 -a 0 -i 9 -k MAC
r -t 1.635841565 -s 3 -d -1 -p message -e 32 -c 2 -a 0 -i 9 -k MAC
r -t 1.635865993 -s 6 -d -1 -p message -e 32 -c 2 -a 0 -i 9 -k RTR
r -t 1.635866222 -s 7 -d -1 -p message -e 32 -c 2 -a 0 -i 9 -k RTR
r -t 1.635866252 -s 4 -d -1 -p message -e 32 -c 2 -a 0 -i 9 -k RTR
r -t 1.635866444 -s 2 -d -1 -p message -e 32 -c 2 -a 0 -i 9 -k RTR
r -t 1.635866456 -s 1 -d -1 -p message -e 32 -c 2 -a 0 -i 9 -k RTR
r -t 1.635866565 -s 3 -d -1 -p message -e 32 -c 2 -a 0 -i 9 -k RTR
n -t 2.000000 -s 5 -x 477.000000 -y 151.000000 -U 14.974833 -V 0.868540 -T 33.389353
n -t 2.000000 -s 7 -x 602.000000 -y 214.000000 -U 4.994843 -V 0.227038 -T 39.640888
+ -t 4.000000000 -s 2 -d -1 -p tcp -e 40 -c 2 -a 0 -i 10 -k AGT 
- -t 4.000000000 -s 2 -d -1 -p tcp -e 40 -c 2 -a 0 -i 10 -k AGT
h -t 4.000000000 -s 2 -d -1 -p tcp -e 40 -c 2 -a 0 -i 10 -k AGT
+ -t 4.000000000 -s 6 -d -1 -p tcp -e 40 -c 2 -a 0 -i 11 -k AGT 
- -t 4.000000000 -s 6 -d -1 -p tcp -e 40 -c 2 -a 0 -i 11 -k AGT
h -t 4.000000000 -s 6 -d -1 -p tcp -e 40 -c 2 -a 0 -i 11 -k AGT
+ -t 10.000000000 -s 2 -d -1 -p tcp -e 40 -c 2 -a 0 -i 12 -k AGT 
- -t 10.000000000 -s 2 -d -1 -p tcp -e 40 -c 2 -a 0 -i 12 -k AGT
h -t 10.000000000 -s 2 -d -1 -p tcp -e 40 -c 2 -a 0 -i 12 -k AGT
+ -t 10.000000000 -s 6 -d -1 -p tcp -e 40 -c 2 -a 0 -i 13 -k AGT 
- -t 10.000000000 -s 6 -d -1 -p tcp -e 40 -c 2 -a 0 -i 13 -k AGT
h -t 10.000000000 -s 6 -d -1 -p tcp -e 40 -c 2 -a 0 -i 13 -k AGT
+ -t 11.854146588 -s 1 -d -1 -p message -e 32 -c 2 -a 0 -i 14 -k RTR 
- -t 11.854146588 -s 1 -d -1 -p message -e 32 -c 2 -a 0 -i 14 -k RTR
h -t 11.854146588 -s 1 -d -1 -p message -e 32 -c 2 -a 0 -i 14 -k RTR
+ -t 11.854341588 -s 1 -d -1 -p message -e 90 -c 2 -a 0 -i 14 -k MAC 
- -t 11.854341588 -s 1 -d -1 -p message -e 90 -c 2 -a 0 -i 14 -k MAC
h -t 11.854341588 -s 1 -d -1 -p message -e 90 -c 2 -a 0 -i 14 -k MAC
r -t 11.855061912 -s 2 -d -1 -p message -e 32 -c 2 -a 0 -i 14 -k MAC
r -t 11.855062079 -s 4 -d -1 -p message -e 32 -c 2 -a 0 -i 14 -k MAC
r -t 11.855062100 -s 6 -d -1 -p message -e 32 -c 2 -a 0 -i 14 -k MAC
r -t 11.855062308 -s 0 -d -1 -p message -e 32 -c 2 -a 0 -i 14 -k MAC
r -t 11.855086912 -s 2 -d -1 -p message -e 32 -c 2 -a 0 -i 14 -k RTR
r -t 11.855087079 -s 4 -d -1 -p message -e 32 -c 2 -a 0 -i 14 -k RTR
r -t 11.855087100 -s 6 -d -1 -p message -e 32 -c 2 -a 0 -i 14 -k RTR
r -t 11.855087308 -s 0 -d -1 -p message -e 32 -c 2 -a 0 -i 14 -k RTR
+ -t 12.033591774 -s 4 -d -1 -p message -e 32 -c 2 -a 0 -i 16 -k RTR 
- -t 12.033591774 -s 4 -d -1 -p message -e 32 -c 2 -a 0 -i 16 -k RTR
h -t 12.033591774 -s 4 -d -1 -p message -e 32 -c 2 -a 0 -i 16 -k RTR
+ -t 12.033846774 -s 4 -d -1 -p message -e 90 -c 2 -a 0 -i 16 -k MAC 
- -t 12.033846774 -s 4 -d -1 -p message -e 90 -c 2 -a 0 -i 16 -k MAC
h -t 12.033846774 -s 4 -d -1 -p message -e 90 -c 2 -a 0 -i 16 -k MAC
r -t 12.034567189 -s 3 -d -1 -p message -e 32 -c 2 -a 0 -i 16 -k MAC
r -t 12.034567265 -s 1 -d -1 -p message -e 32 -c 2 -a 0 -i 16 -k MAC
r -t 12.034567268 -s 6 -d -1 -p message -e 32 -c 2 -a 0 -i 16 -k MAC
r -t 12.034567402 -s 0 -d -1 -p message -e 32 -c 2 -a 0 -i 16 -k MAC
r -t 12.034567483 -s 2 -d -1 -p message -e 32 -c 2 -a 0 -i 16 -k MAC
r -t 12.034592189 -s 3 -d -1 -p message -e 32 -c 2 -a 0 -i 16 -k RTR
r -t 12.034592265 -s 1 -d -1 -p message -e 32 -c 2 -a 0 -i 16 -k RTR
r -t 12.034592268 -s 6 -d -1 -p message -e 32 -c 2 -a 0 -i 16 -k RTR
r -t 12.034592402 -s 0 -d -1 -p message -e 32 -c 2 -a 0 -i 16 -k RTR
r -t 12.034592483 -s 2 -d -1 -p message -e 32 -c 2 -a 0 -i 16 -k RTR
+ -t 12.034592483 -s 2 -d 4 -p tcp -e 80 -c 2 -a 0 -i 5 -k RTR 
- -t 12.034592483 -s 2 -d 4 -p tcp -e 80 -c 2 -a 0 -i 5 -k RTR
h -t 12.034592483 -s 2 -d 4 -p tcp -e 80 -c 2 -a 0 -i 5 -k RTR
+ -t 12.034592483 -s 2 -d 4 -p tcp -e 80 -c 2 -a 0 -i 10 -k RTR 
- -t 12.034592483 -s 2 -d 4 -p tcp -e 80 -c 2 -a 0 -i 10 -k RTR
h -t 12.034592483 -s 2 -d 4 -p tcp -e 80 -c 2 -a 0 -i 10 -k RTR
d -t 12.034592483 -s 2 -d 4 -p tcp -e 80 -c 2 -a 0 -i 5 -k IFQ
+ -t 12.034592483 -s 2 -d 4 -p tcp -e 80 -c 2 -a 0 -i 12 -k RTR 
- -t 12.034592483 -s 2 -d 4 -p tcp -e 80 -c 2 -a 0 -i 12 -k RTR
h -t 12.034592483 -s 2 -d 4 -p tcp -e 80 -c 2 -a 0 -i 12 -k RTR
d -t 12.034592483 -s 2 -d 4 -p tcp -e 80 -c 2 -a 0 -i 10 -k IFQ
+ -t 12.035127483 -s 2 -d -1 -p ARP -e 86 -c 2 -a 0 -i 0 -k MAC 
- -t 12.035127483 -s 2 -d -1 -p ARP -e 86 -c 2 -a 0 -i 0 -k MAC
h -t 12.035127483 -s 2 -d -1 -p ARP -e 86 -c 2 -a 0 -i 0 -k MAC
+ -t 12.035717327 -s 3 -d -1 -p message -e 32 -c 2 -a 0 -i 15 -k RTR 
- -t 12.035717327 -s 3 -d -1 -p message -e 32 -c 2 -a 0 -i 15 -k RTR
h -t 12.035717327 -s 3 -d -1 -p message -e 32 -c 2 -a 0 -i 15 -k RTR
r -t 12.035815807 -s 1 -d -1 -p ARP -e 28 -c 2 -a 0 -i 0 -k MAC
r -t 12.035815935 -s 6 -d -1 -p ARP -e 28 -c 2 -a 0 -i 0 -k MAC
r -t 12.035816164 -s 7 -d -1 -p ARP -e 28 -c 2 -a 0 -i 0 -k MAC
r -t 12.035816192 -s 4 -d -1 -p ARP -e 28 -c 2 -a 0 -i 0 -k MAC
r -t 12.035816257 -s 5 -d -1 -p ARP -e 28 -c 2 -a 0 -i 0 -k MAC
+ -t 12.036085483 -s 2 -d -1 -p ARP -e 86 -c 2 -a 0 -i 0 -k MAC 
- -t 12.036085483 -s 2 -d -1 -p ARP -e 86 -c 2 -a 0 -i 0 -k MAC
h -t 12.036085483 -s 2 -d -1 -p ARP -e 86 -c 2 -a 0 -i 0 -k MAC
r -t 12.036773807 -s 1 -d -1 -p ARP -e 28 -c 2 -a 0 -i 0 -k MAC
r -t 12.036773935 -s 6 -d -1 -p ARP -e 28 -c 2 -a 0 -i 0 -k MAC
r -t 12.036774164 -s 7 -d -1 -p ARP -e 28 -c 2 -a 0 -i 0 -k MAC
r -t 12.036774192 -s 4 -d -1 -p ARP -e 28 -c 2 -a 0 -i 0 -k MAC
r -t 12.036774257 -s 5 -d -1 -p ARP -e 28 -c 2 -a 0 -i 0 -k MAC
+ -t 12.036944192 -s 4 -d -1 -p RTS -e 44 -c 2 -a 0 -i 0 -k MAC 
- -t 12.036944192 -s 4 -d -1 -p RTS -e 44 -c 2 -a 0 -i 0 -k MAC
h -t 12.036944192 -s 4 -d -1 -p RTS -e 44 -c 2 -a 0 -i 0 -k MAC
r -t 12.037296900 -s 2 -d -1 -p RTS -e 44 -c 2 -a 0 -i 0 -k MAC
+ -t 12.037306900 -s 2 -d -1 -p CTS -e 38 -c 2 -a 0 -i 0 -k MAC 
- -t 12.037306900 -s 2 -d -1 -p CTS -e 38 -c 2 -a 0 -i 0 -k MAC
h -t 12.037306900 -s 2 -d -1 -p CTS -e 38 -c 2 -a 0 -i 0 -k MAC
r -t 12.037611609 -s 4 -d -1 -p CTS -e 38 -c 2 -a 0 -i 0 -k MAC
+ -t 12.037621609 -s 4 -d -1 -p ARP -e 86 -c 2 -a 0 -i 0 -k MAC 
- -t 12.037621609 -s 4 -d -1 -p ARP -e 86 -c 2 -a 0 -i 0 -k MAC
h -t 12.037621609 -s 4 -d -1 -p ARP -e 86 -c 2 -a 0 -i 0 -k MAC
r -t 12.038310318 -s 2 -d -1 -p ARP -e 28 -c 2 -a 0 -i 0 -k MAC
+ -t 12.038320318 -s 2 -d -1 -p ACK -e 38 -c 2 -a 0 -i 0 -k MAC 
- -t 12.038320318 -s 2 -d -1 -p ACK -e 38 -c 2 -a 0 -i 0 -k MAC
h -t 12.038320318 -s 2 -d -1 -p ACK -e 38 -c 2 -a 0 -i 0 -k MAC
r -t 12.038625026 -s 4 -d -1 -p ACK -e 38 -c 2 -a 0 -i 0 -k MAC
+ -t 12.038714318 -s 2 -d -1 -p ARP -e 86 -c 2 -a 0 -i 0 -k MAC 
- -t 12.038714318 -s 2 -d -1 -p ARP -e 86 -c 2 -a 0 -i 0 -k MAC
h -t 12.038714318 -s 2 -d -1 -p ARP -e 86 -c 2 -a 0 -i 0 -k MAC
r -t 12.039402642 -s 1 -d -1 -p ARP -e 28 -c 2 -a 0 -i 0 -k MAC
r -t 12.039402769 -s 6 -d -1 -p ARP -e 28 -c 2 -a 0 -i 0 -k MAC
r -t 12.039402999 -s 7 -d -1 -p ARP -e 28 -c 2 -a 0 -i 0 -k MAC
r -t 12.039403026 -s 4 -d -1 -p ARP -e 28 -c 2 -a 0 -i 0 -k MAC
r -t 12.039403092 -s 5 -d -1 -p ARP -e 28 -c 2 -a 0 -i 0 -k MAC
+ -t 12.039532318 -s 2 -d -1 -p RTS -e 44 -c 2 -a 0 -i 0 -k MAC 
- -t 12.039532318 -s 2 -d -1 -p RTS -e 44 -c 2 -a 0 -i 0 -k MAC
h -t 12.039532318 -s 2 -d -1 -p RTS -e 44 -c 2 -a 0 -i 0 -k MAC
r -t 12.039885026 -s 4 -d -1 -p RTS -e 44 -c 2 -a 0 -i 0 -k MAC
+ -t 12.039895026 -s 4 -d -1 -p CTS -e 38 -c 2 -a 0 -i 0 -k MAC 
- -t 12.039895026 -s 4 -d -1 -p CTS -e 38 -c 2 -a 0 -i 0 -k MAC
h -t 12.039895026 -s 4 -d -1 -p CTS -e 38 -c 2 -a 0 -i 0 -k MAC
r -t 12.040199735 -s 2 -d -1 -p CTS -e 38 -c 2 -a 0 -i 0 -k MAC
+ -t 12.040209735 -s 2 -d 4 -p tcp -e 138 -c 2 -a 0 -i 12 -k MAC 
- -t 12.040209735 -s 2 -d 4 -p tcp -e 138 -c 2 -a 0 -i 12 -k MAC
h -t 12.040209735 -s 2 -d 4 -p tcp -e 138 -c 2 -a 0 -i 12 -k MAC
r -t 12.041314444 -s 4 -d 4 -p tcp -e 80 -c 2 -a 0 -i 12 -k MAC
+ -t 12.041324444 -s 4 -d -1 -p ACK -e 38 -c 2 -a 0 -i 0 -k MAC 
- -t 12.041324444 -s 4 -d -1 -p ACK -e 38 -c 2 -a 0 -i 0 -k MAC
h -t 12.041324444 -s 4 -d -1 -p ACK -e 38 -c 2 -a 0 -i 0 -k MAC
+ -t 12.041339444 -s 4 -d 0 -p tcp -e 80 -c 2 -a 0 -i 12 -k RTR 
- -t 12.041339444 -s 4 -d 0 -p tcp -e 80 -c 2 -a 0 -i 12 -k RTR
h -t 12.041339444 -s 4 -d 0 -p tcp -e 80 -c 2 -a 0 -i 12 -k RTR
r -t 12.041629152 -s 2 -d -1 -p ACK -e 38 -c 2 -a 0 -i 0 -k MAC
+ -t 12.041728852 -s 3 -d -1 -p message -e 90 -c 2 -a 0 -i 15 -k MAC 
- -t 12.041728852 -s 3 -d -1 -p message -e 90 -c 2 -a 0 -i 15 -k MAC
h -t 12.041728852 -s 3 -d -1 -p message -e 90 -c 2 -a 0 -i 15 -k MAC
r -t 12.042449267 -s 4 -d -1 -p message -e 32 -c 2 -a 0 -i 15 -k MAC
r -t 12.042449440 -s 0 -d -1 -p message -e 32 -c 2 -a 0 -i 15 -k MAC
r -t 12.042474267 -s 4 -d -1 -p message -e 32 -c 2 -a 0 -i 15 -k RTR
r -t 12.042474440 -s 0 -d -1 -p message -e 32 -c 2 -a 0 -i 15 -k RTR
+ -t 12.042559267 -s 4 -d -1 -p RTS -e 44 -c 2 -a 0 -i 0 -k MAC 
- -t 12.042559267 -s 4 -d -1 -p RTS -e 44 -c 2 -a 0 -i 0 -k MAC
h -t 12.042559267 -s 4 -d -1 -p RTS -e 44 -c 2 -a 0 -i 0 -k MAC
r -t 12.042911976 -s 2 -d -1 -p RTS -e 44 -c 2 -a 0 -i 0 -k MAC
+ -t 12.042921976 -s 2 -d -1 -p CTS -e 38 -c 2 -a 0 -i 0 -k MAC 
- -t 12.042921976 -s 2 -d -1 -p CTS -e 38 -c 2 -a 0 -i 0 -k MAC
h -t 12.042921976 -s 2 -d -1 -p CTS -e 38 -c 2 -a 0 -i 0 -k MAC
r -t 12.043226684 -s 4 -d -1 -p CTS -e 38 -c 2 -a 0 -i 0 -k MAC
+ -t 12.043236684 -s 4 -d -1 -p ARP -e 86 -c 2 -a 0 -i 0 -k MAC 
- -t 12.043236684 -s 4 -d -1 -p ARP -e 86 -c 2 -a 0 -i 0 -k MAC
h -t 12.043236684 -s 4 -d -1 -p ARP -e 86 -c 2 -a 0 -i 0 -k MAC
r -t 12.043925393 -s 2 -d -1 -p ARP -e 28 -c 2 -a 0 -i 0 -k MAC
+ -t 12.043935393 -s 2 -d -1 -p ACK -e 38 -c 2 -a 0 -i 0 -k MAC 
- -t 12.043935393 -s 2 -d -1 -p ACK -e 38 -c 2 -a 0 -i 0 -k MAC
h -t 12.043935393 -s 2 -d -1 -p ACK -e 38 -c 2 -a 0 -i 0 -k MAC
r -t 12.044240102 -s 4 -d -1 -p ACK -e 38 -c 2 -a 0 -i 0 -k MAC
+ -t 12.044530102 -s 4 -d -1 -p RTS -e 44 -c 2 -a 0 -i 0 -k MAC 
- -t 12.044530102 -s 4 -d -1 -p RTS -e 44 -c 2 -a 0 -i 0 -k MAC
h -t 12.044530102 -s 4 -d -1 -p RTS -e 44 -c 2 -a 0 -i 0 -k MAC
r -t 12.044882810 -s 2 -d -1 -p RTS -e 44 -c 2 -a 0 -i 0 -k MAC
+ -t 12.044892810 -s 2 -d -1 -p CTS -e 38 -c 2 -a 0 -i 0 -k MAC 
- -t 12.044892810 -s 2 -d -1 -p CTS -e 38 -c 2 -a 0 -i 0 -k MAC
h -t 12.044892810 -s 2 -d -1 -p CTS -e 38 -c 2 -a 0 -i 0 -k MAC
r -t 12.045197519 -s 4 -d -1 -p CTS -e 38 -c 2 -a 0 -i 0 -k MAC
+ -t 12.045207519 -s 4 -d -1 -p ARP -e 86 -c 2 -a 0 -i 0 -k MAC 
- -t 12.045207519 -s 4 -d -1 -p ARP -e 86 -c 2 -a 0 -i 0 -k MAC
h -t 12.045207519 -s 4 -d -1 -p ARP -e 86 -c 2 -a 0 -i 0 -k MAC
r -t 12.045896228 -s 2 -d -1 -p ARP -e 28 -c 2 -a 0 -i 0 -k MAC
+ -t 12.045906228 -s 2 -d -1 -p ACK -e 38 -c 2 -a 0 -i 0 -k MAC 
- -t 12.045906228 -s 2 -d -1 -p ACK -e 38 -c 2 -a 0 -i 0 -k MAC
h -t 12.045906228 -s 2 -d -1 -p ACK -e 38 -c 2 -a 0 -i 0 -k MAC
r -t 12.046210936 -s 4 -d -1 -p ACK -e 38 -c 2 -a 0 -i 0 -k MAC
+ -t 12.046560936 -s 4 -d -1 -p ARP -e 86 -c 2 -a 0 -i 0 -k MAC 
- -t 12.046560936 -s 4 -d -1 -p ARP -e 86 -c 2 -a 0 -i 0 -k MAC
h -t 12.046560936 -s 4 -d -1 -p ARP -e 86 -c 2 -a 0 -i 0 -k MAC
r -t 12.047249351 -s 3 -d -1 -p ARP -e 28 -c 2 -a 0 -i 0 -k MAC
r -t 12.047249427 -s 1 -d -1 -p ARP -e 28 -c 2 -a 0 -i 0 -k MAC
r -t 12.047249430 -s 6 -d -1 -p ARP -e 28 -c 2 -a 0 -i 0 -k MAC
r -t 12.047249564 -s 0 -d -1 -p ARP -e 28 -c 2 -a 0 -i 0 -k MAC
r -t 12.047249645 -s 2 -d -1 -p ARP -e 28 -c 2 -a 0 -i 0 -k MAC
+ -t 12.047324564 -s 0 -d -1 -p RTS -e 44 -c 2 -a 0 -i 0 -k MAC 
- -t 12.047324564 -s 0 -d -1 -p RTS -e 44 -c 2 -a 0 -i 0 -k MAC
h -t 12.047324564 -s 0 -d -1 -p RTS -e 44 -c 2 -a 0 -i 0 -k MAC
r -t 12.047677191 -s 4 -d -1 -p RTS -e 44 -c 2 -a 0 -i 0 -k MAC
+ -t 12.047687191 -s 4 -d -1 -p CTS -e 38 -c 2 -a 0 -i 0 -k MAC 
- -t 12.047687191 -s 4 -d -1 -p CTS -e 38 -c 2 -a 0 -i 0 -k MAC
h -t 12.047687191 -s 4 -d -1 -p CTS -e 38 -c 2 -a 0 -i 0 -k MAC
r -t 12.047991819 -s 0 -d -1 -p CTS -e 38 -c 2 -a 0 -i 0 -k MAC
+ -t 12.048001819 -s 0 -d -1 -p ARP -e 86 -c 2 -a 0 -i 0 -k MAC 
- -t 12.048001819 -s 0 -d -1 -p ARP -e 86 -c 2 -a 0 -i 0 -k MAC
h -t 12.048001819 -s 0 -d -1 -p ARP -e 86 -c 2 -a 0 -i 0 -k MAC
r -t 12.048690446 -s 4 -d -1 -p ARP -e 28 -c 2 -a 0 -i 0 -k MAC
+ -t 12.048700446 -s 4 -d -1 -p ACK -e 38 -c 2 -a 0 -i 0 -k MAC 
- -t 12.048700446 -s 4 -d -1 -p ACK -e 38 -c 2 -a 0 -i 0 -k MAC
h -t 12.048700446 -s 4 -d -1 -p ACK -e 38 -c 2 -a 0 -i 0 -k MAC
r -t 12.049005073 -s 0 -d -1 -p ACK -e 38 -c 2 -a 0 -i 0 -k MAC
+ -t 12.049314446 -s 4 -d -1 -p RTS -e 44 -c 2 -a 0 -i 0 -k MAC 
- -t 12.049314446 -s 4 -d -1 -p RTS -e 44 -c 2 -a 0 -i 0 -k MAC
h -t 12.049314446 -s 4 -d -1 -p RTS -e 44 -c 2 -a 0 -i 0 -k MAC
r -t 12.049667073 -s 0 -d -1 -p RTS -e 44 -c 2 -a 0 -i 0 -k MAC
+ -t 12.049677073 -s 0 -d -1 -p CTS -e 38 -c 2 -a 0 -i 0 -k MAC 
- -t 12.049677073 -s 0 -d -1 -p CTS -e 38 -c 2 -a 0 -i 0 -k MAC
h -t 12.049677073 -s 0 -d -1 -p CTS -e 38 -c 2 -a 0 -i 0 -k MAC
r -t 12.049981701 -s 4 -d -1 -p CTS -e 38 -c 2 -a 0 -i 0 -k MAC
+ -t 12.049991701 -s 4 -d 0 -p tcp -e 138 -c 2 -a 0 -i 12 -k MAC 
- -t 12.049991701 -s 4 -d 0 -p tcp -e 138 -c 2 -a 0 -i 12 -k MAC
h -t 12.049991701 -s 4 -d 0 -p tcp -e 138 -c 2 -a 0 -i 12 -k MAC
r -t 12.051096328 -s 0 -d 0 -p tcp -e 80 -c 2 -a 0 -i 12 -k MAC
+ -t 12.051106328 -s 0 -d -1 -p ACK -e 38 -c 2 -a 0 -i 0 -k MAC 
- -t 12.051106328 -s 0 -d -1 -p ACK -e 38 -c 2 -a 0 -i 0 -k MAC
h -t 12.051106328 -s 0 -d -1 -p ACK -e 38 -c 2 -a 0 -i 0 -k MAC
r -t 12.051121328 -s 0 -d 0 -p tcp -e 80 -c 2 -a 0 -i 12 -k AGT
+ -t 12.051121328 -s 0 -d -1 -p ack -e 40 -c 2 -a 0 -i 17 -k AGT 
- -t 12.051121328 -s 0 -d -1 -p ack -e 40 -c 2 -a 0 -i 17 -k AGT
h -t 12.051121328 -s 0 -d -1 -p ack -e 40 -c 2 -a 0 -i 17 -k AGT
r -t 12.051410956 -s 4 -d -1 -p ACK -e 38 -c 2 -a 0 -i 0 -k MAC
+ -t 12.081984275 -s 6 -d -1 -p message -e 32 -c 2 -a 0 -i 18 -k RTR 
- -t 12.081984275 -s 6 -d -1 -p message -e 32 -c 2 -a 0 -i 18 -k RTR
h -t 12.081984275 -s 6 -d -1 -p message -e 32 -c 2 -a 0 -i 18 -k RTR
+ -t 12.082099275 -s 6 -d -1 -p message -e 90 -c 2 -a 0 -i 18 -k MAC 
- -t 12.082099275 -s 6 -d -1 -p message -e 90 -c 2 -a 0 -i 18 -k MAC
h -t 12.082099275 -s 6 -d -1 -p message -e 90 -c 2 -a 0 -i 18 -k MAC
r -t 12.082819727 -s 2 -d -1 -p message -e 32 -c 2 -a 0 -i 18 -k MAC
r -t 12.082819769 -s 4 -d -1 -p message -e 32 -c 2 -a 0 -i 18 -k MAC
r -t 12.082819775 -s 5 -d -1 -p message -e 32 -c 2 -a 0 -i 18 -k MAC
r -t 12.082819787 -s 1 -d -1 -p message -e 32 -c 2 -a 0 -i 18 -k MAC
r -t 12.082819813 -s 7 -d -1 -p message -e 32 -c 2 -a 0 -i 18 -k MAC
r -t 12.082844727 -s 2 -d -1 -p message -e 32 -c 2 -a 0 -i 18 -k RTR
r -t 12.082844769 -s 4 -d -1 -p message -e 32 -c 2 -a 0 -i 18 -k RTR
r -t 12.082844775 -s 5 -d -1 -p message -e 32 -c 2 -a 0 -i 18 -k RTR
r -t 12.082844787 -s 1 -d -1 -p message -e 32 -c 2 -a 0 -i 18 -k RTR
r -t 12.082844813 -s 7 -d -1 -p message -e 32 -c 2 -a 0 -i 18 -k RTR
+ -t 12.189035706 -s 5 -d -1 -p message -e 32 -c 2 -a 0 -i 20 -k RTR 
- -t 12.189035706 -s 5 -d -1 -p message -e 32 -c 2 -a 0 -i 20 -k RTR
h -t 12.189035706 -s 5 -d -1 -p message -e 32 -c 2 -a 0 -i 20 -k RTR
+ -t 12.189190706 -s 5 -d -1 -p message -e 90 -c 2 -a 0 -i 20 -k MAC 
- -t 12.189190706 -s 5 -d -1 -p message -e 90 -c 2 -a 0 -i 20 -k MAC
h -t 12.189190706 -s 5 -d -1 -p message -e 90 -c 2 -a 0 -i 20 -k MAC
r -t 12.189910910 -s 7 -d -1 -p message -e 32 -c 2 -a 0 -i 20 -k MAC
r -t 12.189911211 -s 6 -d -1 -p message -e 32 -c 2 -a 0 -i 20 -k MAC
r -t 12.189911484 -s 2 -d -1 -p message -e 32 -c 2 -a 0 -i 20 -k MAC
r -t 12.189935910 -s 7 -d -1 -p message -e 32 -c 2 -a 0 -i 20 -k RTR
r -t 12.189936211 -s 6 -d -1 -p message -e 32 -c 2 -a 0 -i 20 -k RTR
r -t 12.189936484 -s 2 -d -1 -p message -e 32 -c 2 -a 0 -i 20 -k RTR
+ -t 12.191057724 -s 7 -d -1 -p message -e 32 -c 2 -a 0 -i 22 -k RTR 
- -t 12.191057724 -s 7 -d -1 -p message -e 32 -c 2 -a 0 -i 22 -k RTR
h -t 12.191057724 -s 7 -d -1 -p message -e 32 -c 2 -a 0 -i 22 -k RTR
+ -t 12.191332724 -s 7 -d -1 -p message -e 90 -c 2 -a 0 -i 22 -k MAC 
- -t 12.191332724 -s 7 -d -1 -p message -e 90 -c 2 -a 0 -i 22 -k MAC
h -t 12.191332724 -s 7 -d -1 -p message -e 90 -c 2 -a 0 -i 22 -k MAC
r -t 12.192052927 -s 5 -d -1 -p message -e 32 -c 2 -a 0 -i 22 -k MAC
r -t 12.192053264 -s 6 -d -1 -p message -e 32 -c 2 -a 0 -i 22 -k MAC
r -t 12.192053407 -s 2 -d -1 -p message -e 32 -c 2 -a 0 -i 22 -k MAC
r -t 12.192077927 -s 5 -d -1 -p message -e 32 -c 2 -a 0 -i 22 -k RTR
r -t 12.192078264 -s 6 -d -1 -p message -e 32 -c 2 -a 0 -i 22 -k RTR
r -t 12.192078407 -s 2 -d -1 -p message -e 32 -c 2 -a 0 -i 22 -k RTR
+ -t 12.192357398 -s 2 -d -1 -p message -e 32 -c 2 -a 0 -i 19 -k RTR 
- -t 12.192357398 -s 2 -d -1 -p message -e 32 -c 2 -a 0 -i 19 -k RTR
h -t 12.192357398 -s 2 -d -1 -p message -e 32 -c 2 -a 0 -i 19 -k RTR
+ -t 12.192772398 -s 2 -d -1 -p message -e 90 -c 2 -a 0 -i 19 -k MAC 
- -t 12.192772398 -s 2 -d -1 -p message -e 90 -c 2 -a 0 -i 19 -k MAC
h -t 12.192772398 -s 2 -d -1 -p message -e 90 -c 2 -a 0 -i 19 -k MAC
r -t 12.193492722 -s 1 -d -1 -p message -e 32 -c 2 -a 0 -i 19 -k MAC
r -t 12.193492850 -s 6 -d -1 -p message -e 32 -c 2 -a 0 -i 19 -k MAC
r -t 12.193493081 -s 7 -d -1 -p message -e 32 -c 2 -a 0 -i 19 -k MAC
r -t 12.193493107 -s 4 -d -1 -p message -e 32 -c 2 -a 0 -i 19 -k MAC
r -t 12.193493176 -s 5 -d -1 -p message -e 32 -c 2 -a 0 -i 19 -k MAC
r -t 12.193517722 -s 1 -d -1 -p message -e 32 -c 2 -a 0 -i 19 -k RTR
r -t 12.193517850 -s 6 -d -1 -p message -e 32 -c 2 -a 0 -i 19 -k RTR
r -t 12.193518081 -s 7 -d -1 -p message -e 32 -c 2 -a 0 -i 19 -k RTR
r -t 12.193518107 -s 4 -d -1 -p message -e 32 -c 2 -a 0 -i 19 -k RTR
r -t 12.193518176 -s 5 -d -1 -p message -e 32 -c 2 -a 0 -i 19 -k RTR
+ -t 12.635426175 -s 0 -d -1 -p message -e 32 -c 2 -a 0 -i 23 -k RTR 
- -t 12.635426175 -s 0 -d -1 -p message -e 32 -c 2 -a 0 -i 23 -k RTR
h -t 12.635426175 -s 0 -d -1 -p message -e 32 -c 2 -a 0 -i 23 -k RTR
+ -t 12.635561175 -s 0 -d -1 -p message -e 90 -c 2 -a 0 -i 23 -k MAC 
- -t 12.635561175 -s 0 -d -1 -p message -e 90 -c 2 -a 0 -i 23 -k MAC
h -t 12.635561175 -s 0 -d -1 -p message -e 90 -c 2 -a 0 -i 23 -k MAC
r -t 12.636281763 -s 3 -d -1 -p message -e 32 -c 2 -a 0 -i 23 -k MAC
r -t 12.636281802 -s 4 -d -1 -p message -e 32 -c 2 -a 0 -i 23 -k MAC
r -t 12.636281895 -s 1 -d -1 -p message -e 32 -c 2 -a 0 -i 23 -k MAC
r -t 12.636306763 -s 3 -d -1 -p message -e 32 -c 2 -a 0 -i 23 -k RTR
r -t 12.636306802 -s 4 -d -1 -p message -e 32 -c 2 -a 0 -i 23 -k RTR
r -t 12.636306895 -s 1 -d -1 -p message -e 32 -c 2 -a 0 -i 23 -k RTR
+ -t 12.856586861 -s 1 -d -1 -p message -e 44 -c 2 -a 0 -i 24 -k RTR 
- -t 12.856586861 -s 1 -d -1 -p message -e 44 -c 2 -a 0 -i 24 -k RTR
h -t 12.856586861 -s 1 -d -1 -p message -e 44 -c 2 -a 0 -i 24 -k RTR
+ -t 12.857261861 -s 1 -d -1 -p message -e 102 -c 2 -a 0 -i 24 -k MAC 
- -t 12.857261861 -s 1 -d -1 -p message -e 102 -c 2 -a 0 -i 24 -k MAC
h -t 12.857261861 -s 1 -d -1 -p message -e 102 -c 2 -a 0 -i 24 -k MAC
r -t 12.858078185 -s 2 -d -1 -p message -e 44 -c 2 -a 0 -i 24 -k MAC
r -t 12.858078351 -s 4 -d -1 -p message -e 44 -c 2 -a 0 -i 24 -k MAC
r -t 12.858078373 -s 6 -d -1 -p message -e 44 -c 2 -a 0 -i 24 -k MAC
r -t 12.858078581 -s 0 -d -1 -p message -e 44 -c 2 -a 0 -i 24 -k MAC
r -t 12.858103185 -s 2 -d -1 -p message -e 44 -c 2 -a 0 -i 24 -k RTR
r -t 12.858103351 -s 4 -d -1 -p message -e 44 -c 2 -a 0 -i 24 -k RTR
r -t 12.858103373 -s 6 -d -1 -p message -e 44 -c 2 -a 0 -i 24 -k RTR
r -t 12.858103581 -s 0 -d -1 -p message -e 44 -c 2 -a 0 -i 24 -k RTR
+ -t 13.038995998 -s 4 -d -1 -p message -e 44 -c 2 -a 0 -i 26 -k RTR 
- -t 13.038995998 -s 4 -d -1 -p message -e 44 -c 2 -a 0 -i 26 -k RTR
h -t 13.038995998 -s 4 -d -1 -p message -e 44 -c 2 -a 0 -i 26 -k RTR
+ -t 13.039370998 -s 4 -d -1 -p message -e 102 -c 2 -a 0 -i 26 -k MAC 
- -t 13.039370998 -s 4 -d -1 -p message -e 102 -c 2 -a 0 -i 26 -k MAC
h -t 13.039370998 -s 4 -d -1 -p message -e 102 -c 2 -a 0 -i 26 -k MAC
r -t 13.040187413 -s 3 -d -1 -p message -e 44 -c 2 -a 0 -i 26 -k MAC
r -t 13.040187489 -s 1 -d -1 -p message -e 44 -c 2 -a 0 -i 26 -k MAC
r -t 13.040187492 -s 6 -d -1 -p message -e 44 -c 2 -a 0 -i 26 -k MAC
r -t 13.040187626 -s 0 -d -1 -p message -e 44 -c 2 -a 0 -i 26 -k MAC
r -t 13.040187707 -s 2 -d -1 -p message -e 44 -c 2 -a 0 -i 26 -k MAC
+ -t 13.040198450 -s 3 -d -1 -p message -e 44 -c 2 -a 0 -i 25 -k RTR 
- -t 13.040198450 -s 3 -d -1 -p message -e 44 -c 2 -a 0 -i 25 -k RTR
h -t 13.040198450 -s 3 -d -1 -p message -e 44 -c 2 -a 0 -i 25 -k RTR
r -t 13.040212413 -s 3 -d -1 -p message -e 44 -c 2 -a 0 -i 26 -k RTR
r -t 13.040212489 -s 1 -d -1 -p message -e 44 -c 2 -a 0 -i 26 -k RTR
r -t 13.040212492 -s 6 -d -1 -p message -e 44 -c 2 -a 0 -i 26 -k RTR
r -t 13.040212626 -s 0 -d -1 -p message -e 44 -c 2 -a 0 -i 26 -k RTR
+ -t 13.040212626 -s 0 -d 4 -p ack -e 80 -c 2 -a 0 -i 17 -k RTR 
- -t 13.040212626 -s 0 -d 4 -p ack -e 80 -c 2 -a 0 -i 17 -k RTR
h -t 13.040212626 -s 0 -d 4 -p ack -e 80 -c 2 -a 0 -i 17 -k RTR
r -t 13.040212707 -s 2 -d -1 -p message -e 44 -c 2 -a 0 -i 26 -k RTR
+ -t 13.040327626 -s 0 -d -1 -p RTS -e 44 -c 2 -a 0 -i 0 -k MAC 
- -t 13.040327626 -s 0 -d -1 -p RTS -e 44 -c 2 -a 0 -i 0 -k MAC
h -t 13.040327626 -s 0 -d -1 -p RTS -e 44 -c 2 -a 0 -i 0 -k MAC
r -t 13.040680253 -s 4 -d -1 -p RTS -e 44 -c 2 -a 0 -i 0 -k MAC
+ -t 13.040690253 -s 4 -d -1 -p CTS -e 38 -c 2 -a 0 -i 0 -k MAC 
- -t 13.040690253 -s 4 -d -1 -p CTS -e 38 -c 2 -a 0 -i 0 -k MAC