s -t 0.031500112 -Hs 0 -Hd -1 -Ni 0 -Nx 191.00 -Ny 327.00 -Nz 0.00 -Ne 50.000000 -Nl RTR -Nw --- -Ma 0 -Md 0 -Ms 0 -Mt 0 -Is 0.255 -Id -1.255 -It message -Il 32 -If 0 -Ii 0 -Iv 32 
s -t 0.031615112 -Hs 0 -Hd -1 -Ni 0 -Nx 191.00 -Ny 327.00 -Nz 0.00 -Ne 50.000000 -Nl MAC -Nw --- -Ma 0 -Md ffffffff -Ms 0 -Mt 800 -Is 0.255 -Id -1.255 -It message -Il 90 -If 0 -Ii 0 -Iv 32 
N -t 0.031616 -n 3 -e 49.980527
N -t 0.031616 -n 4 -e 49.980527
N -t 0.031616 -n 1 -e 49.980527
N -t 0.031616 -n 2 -e 49.980526
N -t 0.031616 -n 6 -e 49.980526
N -t 0.031616 -n 5 -e 49.980526
N -t 0.031617 -n 7 -e 49.980526
r -t 0.032335700 -Hs 3 -Hd -1 -Ni 3 -Nx 234.00 -Ny 156.00 -Nz 0.00 -Ne 49.980527 -Nl MAC -Nw --- -Ma 0 -Md ffffffff -Ms 0 -Mt 800 -Is 0.255 -Id -1.255 -It message -Il 32 -If 0 -Ii 0 -Iv 32 
r -t 0.032335739 -Hs 4 -Hd -1 -Ni 4 -Nx 343.00 -Ny 216.00 -Nz 0.00 -Ne 49.980527 -Nl MAC -Nw --- -Ma 0 -Md ffffffff -Ms 0 -Mt 800 -Is 0.255 -Id -1.255 -It message -Il 32 -If 0 -Ii 0 -Iv 32 
r -t 0.032335832 -Hs 1 -Hd -1 -Ni 1 -Nx 406.00 -Ny 349.00 -Nz 0.00 -Ne 49.980527 -Nl MAC -Nw --- -Ma 0 -Md ffffffff -Ms 0 -Mt 800 -Is 0.255 -Id -1.255 -It message -Il 32 -If 0 -Ii 0 -Iv 32 
r -t 0.032360700 -Hs 3 -Hd -1 -Ni 3 -Nx 234.00 -Ny 156.00 -Nz 0.00 -Ne 49.980527 -Nl RTR -Nw --- -Ma 0 -Md ffffffff -Ms 0 -Mt 800 -Is 0.255 -Id -1.255 -It message -Il 32 -If 0 -Ii 0 -Iv 32 
r -t 0.032360739 -Hs 4 -Hd -1 -Ni 4 -Nx 343.00 -Ny 216.00 -Nz 0.00 -Ne 49.980527 -Nl RTR -Nw --- -Ma 0 -Md ffffffff -Ms 0 -Mt 800 -Is 0.255 -Id -1.255 -It message -Il 32 -If 0 -Ii 0 -Iv 32 
r -t 0.032360832 -Hs 1 -Hd -1 -Ni 1 -Nx 406.00 -Ny 349.00 -Nz 0.00 -Ne 49.980527 -Nl RTR -Nw --- -Ma 0 -Md ffffffff -Ms 0 -Mt 800 -Is 0.255 -Id -1.255 -It message -Il 32 -If 0 -Ii 0 -Iv 32 
s -t 0.182646019 -Hs 1 -Hd -1 -Ni 1 -Nx 406.00 -Ny 349.00 -Nz 0.00 -Ne 49.980527 -Nl RTR -Nw --- -Ma 0 -Md 0 -Ms 0 -Mt 0 -Is 1.255 -Id -1.255 -It message -Il 32 -If 0 -Ii 1 -Iv 32 
s -t 0.182961019 -Hs 1 -Hd -1 -Ni 1 -Nx 406.00 -Ny 349.00 -Nz 0.00 -Ne 49.980527 -Nl MAC -Nw --- -Ma 0 -Md ffffffff -Ms 1 -Mt 800 -Is 1.255 -Id -1.255 -It message -Il 90 -If 0 -Ii 1 -Iv 32 
N -t 0.182961 -n 2 -e 49.889647
N -t 0.182962 -n 4 -e 49.889647
N -t 0.182962 -n 6 -e 49.889647
N -t 0.182962 -n 5 -e 49.889647
N -t 0.182962 -n 0 -e 49.889503
N -t 0.182962 -n 7 -e 49.889647
N -t 0.182962 -n 3 -e 49.889647
r -t 0.183681343 -Hs 2 -Hd -1 -Ni 2 -Nx 503.00 -Ny 356.00 -Nz 0.00 -Ne 49.889647 -Nl MAC -Nw --- -Ma 0 -Md ffffffff -Ms 1 -Mt 800 -Is 1.255 -Id -1.255 -It message -Il 32 -If 0 -Ii 1 -Iv 32 
r -t 0.183681510 -Hs 4 -Hd -1 -Ni 4 -Nx 343.00 -Ny 216.00 -Nz 0.00 -Ne 49.889647 -Nl MAC -Nw --- -Ma 0 -Md ffffffff -Ms 1 -Mt 800 -Is 1.255 -Id -1.255 -It message -Il 32 -If 0 -Ii 1 -Iv 32 
r -t 0.183681531 -Hs 6 -Hd -1 -Ni 6 -Nx 491.00 -Ny 221.00 -Nz 0.00 -Ne 49.889647 -Nl MAC -Nw --- -Ma 0 -Md ffffffff -Ms 1 -Mt 800 -Is 1.255 -Id -1.255 -It message -Il 32 -If 0 -Ii 1 -Iv 32 
r -t 0.183681720 -Hs 5 -Hd -1 -Ni 5 -Nx 477.00 -Ny 151.00 -Nz 0.00 -Ne 49.889647 -Nl MAC -Nw --- -Ma 0 -Md ffffffff -Ms 1 -Mt 800 -Is 1.255 -Id -1.255 -It message -Il 32 -If 0 -Ii 1 -Iv 32 
r -t 0.183681740 -Hs 0 -Hd -1 -Ni 0 -Nx 191.00 -Ny 327.00 -Nz 0.00 -Ne 49.889503 -Nl MAC -Nw --- -Ma 0 -Md ffffffff -Ms 1 -Mt 800 -Is 1.255 -Id -1.255 -It message -Il 32 -If 0 -Ii 1 -Iv 32 
r -t 0.183681813 -Hs 7 -Hd -1 -Ni 7 -Nx 602.00 -Ny 214.00 -Nz 0.00 -Ne 49.889647 -Nl MAC -Nw --- -Ma 0 -Md ffffffff -Ms 1 -Mt 800 -Is 1.255 -Id -1.255 -It message -Il 32 -If 0 -Ii 1 -Iv 32 
r -t 0.183706343 -Hs 2 -Hd -1 -Ni 2 -Nx 503.00 -Ny 356.00 -Nz 0.00 -Ne 49.889647 -Nl RTR -Nw --- -Ma 0 -Md ffffffff -Ms 1 -Mt 800 -Is 1.255 -Id -1.255 -It message -Il 32 -If 0 -Ii 1 -Iv 32 
r -t 0.183706510 -Hs 4 -Hd -1 -Ni 4 -Nx 343.00 -Ny 216.00 -Nz 0.00 -Ne 49.889647 -Nl RTR -Nw --- -Ma 0 -Md ffffffff -Ms 1 -Mt 800 -Is 1.255 -Id -1.255 -It message -Il 32 -If 0 -Ii 1 -Iv 32 
r -t 0.183706531 -Hs 6 -Hd -1 -Ni 6 -Nx 491.00 -Ny 221.00 -Nz 0.00 -Ne 49.889647 -Nl RTR -Nw --- -Ma 0 -Md ffffffff -Ms 1 -Mt 800 -Is 1.255 -Id -1.255 -It message -Il 32 -If 0 -Ii 1 -Iv 32 
r -t 0.183706720 -Hs 5 -Hd -1 -Ni 5 -Nx 477.00 -Ny 151.00 -Nz 0.00 -Ne 49.889647 -Nl RTR -Nw --- -Ma 0 -Md ffffffff -Ms 1 -Mt 800 -Is 1.255 -Id -1.255 -It message -Il 32 -If 0 -Ii 1 -Iv 32 
r -t 0.183706740 -Hs 0 -Hd -1 -Ni 0 -Nx 191.00 -Ny 327.00 -Nz 0.00 -Ne 49.889503 -Nl RTR -Nw --- -Ma 0 -Md ffffffff -Ms 1 -Mt 800 -Is 1.255 -Id -1.255 -It message -Il 32 -If 0 -Ii 1 -Iv 32 
r -t 0.183706813 -Hs 7 -Hd -1 -Ni 7 -Nx 602.00 -Ny 214.00 -Nz 0.00 -Ne 49.889647 -Nl RTR -Nw --- -Ma 0 -Md ffffffff -Ms 1 -Mt 800 -Is 1.255 -Id -1.255 -It message -Il 32 -If 0 -Ii 1 -Iv 32 
s -t 0.470951556 -Hs 6 -Hd -1 -Ni 6 -Nx 491.00 -Ny 221.00 -Nz 0.00 -Ne 49.889647 -Nl RTR -Nw --- -Ma 0 -Md 0 -Ms 0 -Mt 0 -Is 6.255 -Id -1.255 -It message -Il 32 -If 0 -Ii 2 -Iv 32 
s -t 0.471346556 -Hs 6 -Hd -1 -Ni 6 -Nx 491.00 -Ny 221.00 -Nz 0.00 -Ne 49.889647 -Nl MAC -Nw --- -Ma 0 -Md ffffffff -Ms 6 -Mt 800 -Is 6.255 -Id -1.255 -It message -Il 90 -If 0 -Ii 2 -Iv 32 
N -t 0.471347 -n 5 -e 49.716544
N -t 0.471347 -n 7 -e 49.716544
N -t 0.471347 -n 2 -e 49.716544
N -t 0.471347 -n 4 -e 49.716544
N -t 0.471347 -n 1 -e 49.716400
N -t 0.471347 -n 3 -e 49.716544
N -t 0.471348 -n 0 -e 49.716399
r -t 0.472066794 -Hs 5 -Hd -1 -Ni 5 -Nx 477.00 -Ny 151.00 -Nz 0.00 -Ne 49.716544 -Nl MAC -Nw --- -Ma 0 -Md ffffffff -Ms 6 -Mt 800 -Is 6.255 -Id -1.255 -It message -Il 32 -If 0 -Ii 2 -Iv 32 
r -t 0.472066927 -Hs 7 -Hd -1 -Ni 7 -Nx 602.00 -Ny 214.00 -Nz 0.00 -Ne 49.716544 -Nl MAC -Nw --- -Ma 0 -Md ffffffff -Ms 6 -Mt 800 -Is 6.255 -Id -1.255 -It message -Il 32 -If 0 -Ii 2 -Iv 32 
r -t 0.472067008 -Hs 2 -Hd -1 -Ni 2 -Nx 503.00 -Ny 356.00 -Nz 0.00 -Ne 49.716544 -Nl MAC -Nw --- -Ma 0 -Md ffffffff -Ms 6 -Mt 800 -Is 6.255 -Id -1.255 -It message -Il 32 -If 0 -Ii 2 -Iv 32 
r -t 0.472067050 -Hs 4 -Hd -1 -Ni 4 -Nx 343.00 -Ny 216.00 -Nz 0.00 -Ne 49.716544 -Nl MAC -Nw --- -Ma 0 -Md ffffffff -Ms 6 -Mt 800 -Is 6.255 -Id -1.255 -It message -Il 32 -If 0 -Ii 2 -Iv 32 
r -t 0.472067068 -Hs 1 -Hd -1 -Ni 1 -Nx 406.00 -Ny 349.00 -Nz 0.00 -Ne 49.716400 -Nl MAC -Nw --- -Ma 0 -Md ffffffff -Ms 6 -Mt 800 -Is 6.255 -Id -1.255 -It message -Il 32 -If 0 -Ii 2 -Iv 32 
r -t 0.472091794 -Hs 5 -Hd -1 -Ni 5 -Nx 477.00 -Ny 151.00 -Nz 0.00 -Ne 49.716544 -Nl RTR -Nw --- -Ma 0 -Md ffffffff -Ms 6 -Mt 800 -Is 6.255 -Id -1.255 -It message -Il 32 -If 0 -Ii 2 -Iv 32 
r -t 0.472091927 -Hs 7 -Hd -1 -Ni 7 -Nx 602.00 -Ny 214.00 -Nz 0.00 -Ne 49.716544 -Nl RTR -Nw --- -Ma 0 -Md ffffffff -Ms 6 -Mt 800 -Is 6.255 -Id -1.255 -It message -Il 32 -If 0 -Ii 2 -Iv 32 
r -t 0.472092008 -Hs 2 -Hd -1 -Ni 2 -Nx 503.00 -Ny 356.00 -Nz 0.00 -Ne 49.716544 -Nl RTR -Nw --- -Ma 0 -Md ffffffff -Ms 6 -Mt 800 -Is 6.255 -Id -1.255 -It message -Il 32 -If 0 -Ii 2 -Iv 32 
r -t 0.472092050 -Hs 4 -Hd -1 -Ni 4 -Nx 343.00 -Ny 216.00 -Nz 0.00 -Ne 49.716544 -Nl RTR -Nw --- -Ma 0 -Md ffffffff -Ms 6 -Mt 800 -Is 6.255 -Id -1.255 -It message -Il 32 -If 0 -Ii 2 -Iv 32 
r -t 0.472092068 -Hs 1 -Hd -1 -Ni 1 -Nx 406.00 -Ny 349.00 -Nz 0.00 -Ne 49.716400 -Nl RTR -Nw --- -Ma 0 -Md ffffffff -Ms 6 -Mt 800 -Is 6.255 -Id -1.255 -It message -Il 32 -If 0 -Ii 2 -Iv 32 
s -t 0.628504423 -Hs 4 -Hd -1 -Ni 4 -Nx 343.00 -Ny 216.00 -Nz 0.00 -Ne 49.716544 -Nl RTR -Nw --- -Ma 0 -Md 0 -Ms 0 -Mt 0 -Is 4.255 -Id -1.255 -It message -Il 32 -If 0 -Ii 3 -Iv 32 
s -t 0.628819423 -Hs 4 -Hd -1 -Ni 4 -Nx 343.00 -Ny 216.00 -Nz 0.00 -Ne 49.716544 -Nl MAC -Nw --- -Ma 0 -Md ffffffff -Ms 4 -Mt 800 -Is 4.255 -Id -1.255 -It message -Il 90 -If 0 -Ii 3 -Iv 32 
N -t 0.628820 -n 3 -e 49.621988
N -t 0.628820 -n 1 -e 49.621844
N -t 0.628820 -n 6 -e 49.621844
N -t 0.628820 -n 5 -e 49.621988
N -t 0.628820 -n 0 -e 49.621844
N -t 0.628820 -n 2 -e 49.621988
N -t 0.628820 -n 7 -e 49.621988
r -t 0.629539838 -Hs 3 -Hd -1 -Ni 3 -Nx 234.00 -Ny 156.00 -Nz 0.00 -Ne 49.621988 -Nl MAC -Nw --- -Ma 0 -Md ffffffff -Ms 4 -Mt 800 -Is 4.255 -Id -1.255 -It message -Il 32 -If 0 -Ii 3 -Iv 32 
r -t 0.629539913 -Hs 1 -Hd -1 -Ni 1 -Nx 406.00 -Ny 349.00 -Nz 0.00 -Ne 49.621844 -Nl MAC -Nw --- -Ma 0 -Md ffffffff -Ms 4 -Mt 800 -Is 4.255 -Id -1.255 -It message -Il 32 -If 0 -Ii 3 -Iv 32 
r -t 0.629539916 -Hs 6 -Hd -1 -Ni 6 -Nx 491.00 -Ny 221.00 -Nz 0.00 -Ne 49.621844 -Nl MAC -Nw --- -Ma 0 -Md ffffffff -Ms 4 -Mt 800 -Is 4.255 -Id -1.255 -It message -Il 32 -If 0 -Ii 3 -Iv 32 
r -t 0.629539919 -Hs 5 -Hd -1 -Ni 5 -Nx 477.00 -Ny 151.00 -Nz 0.00 -Ne 49.621988 -Nl MAC -Nw --- -Ma 0 -Md ffffffff -Ms 4 -Mt 800 -Is 4.255 -Id -1.255 -It message -Il 32 -If 0 -Ii 3 -Iv 32 
r -t 0.629540050 -Hs 0 -Hd -1 -Ni 0 -Nx 191.00 -Ny 327.00 -Nz 0.00 -Ne 49.621844 -Nl MAC -Nw --- -Ma 0 -Md ffffffff -Ms 4 -Mt 800 -Is 4.255 -Id -1.255 -It message -Il 32 -If 0 -Ii 3 -Iv 32 
r -t 0.629540131 -Hs 2 -Hd -1 -Ni 2 -Nx 503.00 -Ny 356.00 -Nz 0.00 -Ne 49.621988 -Nl MAC -Nw --- -Ma 0 -Md ffffffff -Ms 4 -Mt 800 -Is 4.255 -Id -1.255 -It message -Il 32 -If 0 -Ii 3 -Iv 32 
r -t 0.629564838 -Hs 3 -Hd -1 -Ni 3 -Nx 234.00 -Ny 156.00 -Nz 0.00 -Ne 49.621988 -Nl RTR -Nw --- -Ma 0 -Md ffffffff -Ms 4 -Mt 800 -Is 4.255 -Id -1.255 -It message -Il 32 -If 0 -Ii 3 -Iv 32 
r -t 0.629564913 -Hs 1 -Hd -1 -Ni 1 -Nx 406.00 -Ny 349.00 -Nz 0.00 -Ne 49.621844 -Nl RTR -Nw --- -Ma 0 -Md ffffffff -Ms 4 -Mt 800 -Is 4.255 -Id -1.255 -It message -Il 32 -If 0 -Ii 3 -Iv 32 
r -t 0.629564916 -Hs 6 -Hd -1 -Ni 6 -Nx 491.00 -Ny 221.00 -Nz 0.00 -Ne 49.621844 -Nl RTR -Nw --- -Ma 0 -Md ffffffff -Ms 4 -Mt 800 -Is 4.255 -Id -1.255 -It message -Il 32 -If 0 -Ii 3 -Iv 32 
r -t 0.629564919 -Hs 5 -Hd -1 -Ni 5 -Nx 477.00 -Ny 151.00 -Nz 0.00 -Ne 49.621988 -Nl RTR -Nw --- -Ma 0 -Md ffffffff -Ms 4 -Mt 800 -Is 4.255 -Id -1.255 -It message -Il 32 -If 0 -Ii 3 -Iv 32 
r -t 0.629565050 -Hs 0 -Hd -1 -Ni 0 -Nx 191.00 -Ny 327.00 -Nz 0.00 -Ne 49.621844 -Nl RTR -Nw --- -Ma 0 -Md ffffffff -Ms 4 -Mt 800 -Is 4.255 -Id -1.255 -It message -Il 32 -If 0 -Ii 3 -Iv 32 
r -t 0.629565131 -Hs 2 -Hd -1 -Ni 2 -Nx 503.00 -Ny 356.00 -Nz 0.00 -Ne 49.621988 -Nl RTR -Nw --- -Ma 0 -Md ffffffff -Ms 4 -Mt 800 -Is 4.255 -Id -1.255 -It message -Il 32 -If 0 -Ii 3 -Iv 32 
s -t 0.889269832 -Hs 2 -Hd -1 -Ni 2 -Nx 503.00 -Ny 356.00 -Nz 0.00 -Ne 49.621988 -Nl RTR -Nw --- -Ma 0 -Md 0 -Ms 0 -Mt 0 -Is 2.255 -Id -1.255 -It message -Il 32 -If 0 -Ii 4 -Iv 32 
s -t 0.889744832 -Hs 2 -Hd -1 -Ni 2 -Nx 503.00 -Ny 356.00 -Nz 0.00 -Ne 49.621988 -Nl MAC -Nw --- -Ma 0 -Md ffffffff -Ms 2 -Mt 800 -Is 2.255 -Id -1.255 -It message -Il 90 -If 0 -Ii 4 -Iv 32 
N -t 0.889745 -n 1 -e 49.465217
N -t 0.889745 -n 6 -e 49.465217
N -t 0.889745 -n 7 -e 49.465361
N -t 0.889746 -n 5 -e 49.465361
N -t 0.889746 -n 4 -e 49.465217
N -t 0.889746 -n 0 -e 49.465216
N -t 0.889746 -n 3 -e 49.465360
r -t 0.890465157 -Hs 1 -Hd -1 -Ni 1 -Nx 406.00 -Ny 349.00 -Nz 0.00 -Ne 49.465217 -Nl MAC -Nw --- -Ma 0 -Md ffffffff -Ms 2 -Mt 800 -Is 2.255 -Id -1.255 -It message -Il 32 -If 0 -Ii 4 -Iv 32 
r -t 0.890465284 -Hs 6 -Hd -1 -Ni 6 -Nx 491.00 -Ny 221.00 -Nz 0.00 -Ne 49.465217 -Nl MAC -Nw --- -Ma 0 -Md ffffffff -Ms 2 -Mt 800 -Is 2.255 -Id -1.255 -It message -Il 32 -If 0 -Ii 4 -Iv 32 
r -t 0.890465409 -Hs 7 -Hd -1 -Ni 7 -Nx 602.00 -Ny 214.00 -Nz 0.00 -Ne 49.465361 -Nl MAC -Nw --- -Ma 0 -Md ffffffff -Ms 2 -Mt 800 -Is 2.255 -Id -1.255 -It message -Il 32 -If 0 -Ii 4 -Iv 32 
r -t 0.890465521 -Hs 5 -Hd -1 -Ni 5 -Nx 477.00 -Ny 151.00 -Nz 0.00 -Ne 49.465361 -Nl MAC -Nw --- -Ma 0 -Md ffffffff -Ms 2 -Mt 800 -Is 2.255 -Id -1.255 -It message -Il 32 -If 0 -Ii 4 -Iv 32 
r -t 0.890465541 -Hs 4 -Hd -1 -Ni 4 -Nx 343.00 -Ny 216.00 -Nz 0.00 -Ne 49.465217 -Nl MAC -Nw --- -Ma 0 -Md ffffffff -Ms 2 -Mt 800 -Is 2.255 -Id -1.255 -It message -Il 32 -If 0 -Ii 4 -Iv 32 
r -t 0.890490157 -Hs 1 -Hd -1 -Ni 1 -Nx 406.00 -Ny 349.00 -Nz 0.00 -Ne 49.465217 -Nl RTR -Nw --- -Ma 0 -Md ffffffff -Ms 2 -Mt 800 -Is 2.255 -Id -1.255 -It message -Il 32 -If 0 -Ii 4 -Iv 32 
r -t 0.890490284 -Hs 6 -Hd -1 -Ni 6 -Nx 491.00 -Ny 221.00 -Nz 0.00 -Ne 49.465217 -Nl RTR -Nw --- -Ma 0 -Md ffffffff -Ms 2 -Mt 800 -Is 2.255 -Id -1.255 -It message -Il 32 -If 0 -Ii 4 -Iv 32 
r -t 0.890490409 -Hs 7 -Hd -1 -Ni 7 -Nx 602.00 -Ny 214.00 -Nz 0.00 -Ne 49.465361 -Nl RTR -Nw --- -Ma 0 -Md ffffffff -Ms 2 -Mt 800 -Is 2.255 -Id -1.255 -It message -Il 32 -If 0 -Ii 4 -Iv 32 
r -t 0.890490521 -Hs 5 -Hd -1 -Ni 5 -Nx 477.00 -Ny 151.00 -Nz 0.00 -Ne 49.465361 -Nl RTR -Nw --- -Ma 0 -Md ffffffff -Ms 2 -Mt 800 -Is 2.255 -Id -1.255 -It message -Il 32 -If 0 -Ii 4 -Iv 32 
r -t 0.890490541 -Hs 4 -Hd -1 -Ni 4 -Nx 343.00 -Ny 216.00 -Nz 0.00 -Ne 49.465217 -Nl RTR -Nw --- -Ma 0 -Md ffffffff -Ms 2 -Mt 800 -Is 2.255 -Id -1.255 -It message -Il 32 -If 0 -Ii 4 -Iv 32 
s -t 1.000000000 -Hs 2 -Hd -2 -Ni 2 -Nx 503.00 -Ny 356.00 -Nz 0.00 -Ne 49.465217 -Nl AGT -Nw --- -Ma 0 -Md 0 -Ms 0 -Mt 0 -Is 2.0 -Id 0.0 -It tcp -Il 40 -If 0 -Ii 5 -Iv 32 -Pn tcp -Ps 0 -Pa 0 -Pf 0 -Po 0 
r -t 1.000000000 -Hs 2 -Hd -2 -Ni 2 -Nx 503.00 -Ny 356.00 -Nz 0.00 -Ne 49.465217 -Nl RTR -Nw --- -Ma 0 -Md 0 -Ms 0 -Mt 0 -Is 2.0 -Id 0.0 -It tcp -Il 40 -If 0 -Ii 5 -Iv 32 -Pn tcp -Ps 0 -Pa 0 -Pf 0 -Po 0 
s -t 1.000000000 -Hs 6 -Hd -2 -Ni 6 -Nx 491.00 -Ny 221.00 -Nz 0.00 -Ne 49.465217 -Nl AGT -Nw --- -Ma 0 -Md 0 -Ms 0 -Mt 0 -Is 6.0 -Id 3.0 -It tcp -Il 40 -If 0 -Ii 6 -Iv 32 -Pn tcp -Ps 0 -Pa 0 -Pf 0 -Po 0 
r -t 1.000000000 -Hs 6 -Hd -2 -Ni 6 -Nx 491.00 -Ny 221.00 -Nz 0.00 -Ne 49.465217 -Nl RTR -Nw --- -Ma 0 -Md 0 -Ms 0 -Mt 0 -Is 6.0 -Id 3.0 -It tcp -Il 40 -If 0 -Ii 6 -Iv 32 -Pn tcp -Ps 0 -Pa 0 -Pf 0 -Po 0 
s -t 1.280142543 -Hs 7 -Hd -1 -Ni 7 -Nx 602.00 -Ny 214.00 -Nz 0.00 -Ne 49.465361 -Nl RTR -Nw --- -Ma 0 -Md 0 -Ms 0 -Mt 0 -Is 7.255 -Id -1.255 -It message -Il 32 -If 0 -Ii 7 -Iv 32 
s -t 1.280517543 -Hs 7 -Hd -1 -Ni 7 -Nx 602.00 -Ny 214.00 -Nz 0.00 -Ne 49.465361 -Nl MAC -Nw --- -Ma 0 -Md ffffffff -Ms 7 -Mt 800 -Is 7.255 -Id -1.255 -It message -Il 90 -If 0 -Ii 7 -Iv 32 
N -t 1.280518 -n 6 -e 49.230681
N -t 1.280518 -n 5 -e 49.230825
N -t 1.280518 -n 2 -e 49.230681
N -t 1.280518 -n 1 -e 49.230681
N -t 1.280518 -n 4 -e 49.230681
N -t 1.280519 -n 3 -e 49.230825
N -t 1.280519 -n 0 -e 49.230681
r -t 1.281237914 -Hs 6 -Hd -1 -Ni 6 -Nx 491.00 -Ny 221.00 -Nz 0.00 -Ne 49.230681 -Nl MAC -Nw --- -Ma 0 -Md ffffffff -Ms 7 -Mt 800 -Is 7.255 -Id -1.255 -It message -Il 32 -If 0 -Ii 7 -Iv 32 
r -t 1.281238009 -Hs 5 -Hd -1 -Ni 5 -Nx 477.00 -Ny 151.00 -Nz 0.00 -Ne 49.230825 -Nl MAC -Nw --- -Ma 0 -Md ffffffff -Ms 7 -Mt 800 -Is 7.255 -Id -1.255 -It message -Il 32 -If 0 -Ii 7 -Iv 32 
r -t 1.281238120 -Hs 2 -Hd -1 -Ni 2 -Nx 503.00 -Ny 356.00 -Nz 0.00 -Ne 49.230681 -Nl MAC -Nw --- -Ma 0 -Md ffffffff -Ms 7 -Mt 800 -Is 7.255 -Id -1.255 -It message -Il 32 -If 0 -Ii 7 -Iv 32 
r -t 1.281238336 -Hs 1 -Hd -1 -Ni 1 -Nx 406.00 -Ny 349.00 -Nz 0.00 -Ne 49.230681 -Nl MAC -Nw --- -Ma 0 -Md ffffffff -Ms 7 -Mt 800 -Is 7.255 -Id -1.255 -It message -Il 32 -If 0 -Ii 7 -Iv 32 
r -t 1.281262914 -Hs 6 -Hd -1 -Ni 6 -Nx 491.00 -Ny 221.00 -Nz 0.00 -Ne 49.230681 -Nl RTR -Nw --- -Ma 0 -Md ffffffff -Ms 7 -Mt 800 -Is 7.255 -Id -1.255 -It message -Il 32 -If 0 -Ii 7 -Iv 32 
r -t 1.281263009 -Hs 5 -Hd -1 -Ni 5 -Nx 477.00 -Ny 151.00 -Nz 0.00 -Ne 49.230825 -Nl RTR -Nw --- -Ma 0 -Md ffffffff -Ms 7 -Mt 800 -Is 7.255 -Id -1.255 -It message -Il 32 -If 0 -Ii 7 -Iv 32 
r -t 1.281263120 -Hs 2 -Hd -1 -Ni 2 -Nx 503.00 -Ny 356.00 -Nz 0.00 -Ne 49.230681 -Nl RTR -Nw --- -Ma 0 -Md ffffffff -Ms 7 -Mt 800 -Is 7.255 -Id -1.255 -It message -Il 32 -If 0 -Ii 7 -Iv 32 
r -t 1.281263336 -Hs 1 -Hd -1 -Ni 1 -Nx 406.00 -Ny 349.00 -Nz 0.00 -Ne 49.230681 -Nl RTR -Nw --- -Ma 0 -Md ffffffff -Ms 7 -Mt 800 -Is 7.255 -Id -1.255 -It message -Il 32 -If 0 -Ii 7 -Iv 32 
s -t 1.607360362 -Hs 3 -Hd -1 -Ni 3 -Nx 234.00 -Ny 156.00 -Nz 0.00 -Ne 49.230825 -Nl RTR -Nw --- -Ma 0 -Md 0 -Ms 0 -Mt 0 -Is 3.255 -Id -1.255 -It message -Il 32 -If 0 -Ii 8 -Iv 32 
s -t 1.607715362 -Hs 3 -Hd -1 -Ni 3 -Nx 234.00 -Ny 156.00 -Nz 0.00 -Ne 49.230825 -Nl MAC -Nw --- -Ma 0 -Md ffffffff -Ms 3 -Mt 800 -Is 3.255 -Id -1.255 -It message -Il 90 -If 0 -Ii 8 -Iv 32 
N -t 1.607716 -n 4 -e 49.034291
N -t 1.607716 -n 0 -e 49.034290
N -t 1.607716 -n 5 -e 49.034434
N -t 1.607716 -n 1 -e 49.034290
N -t 1.607716 -n 6 -e 49.034290
N -t 1.607716 -n 2 -e 49.034290
N -t 1.607717 -n 7 -e 49.034290
r -t 1.608435776 -Hs 4 -Hd -1 -Ni 4 -Nx 343.00 -Ny 216.00 -Nz 0.00 -Ne 49.034291 -Nl MAC -Nw --- -Ma 0 -Md ffffffff -Ms 3 -Mt 800 -Is 3.255 -Id -1.255 -It message -Il 32 -If 0 -Ii 8 -Iv 32 
r -t 1.608435949 -Hs 0 -Hd -1 -Ni 0 -Nx 191.00 -Ny 327.00 -Nz 0.00 -Ne 49.034290 -Nl MAC -Nw --- -Ma 0 -Md ffffffff -Ms 3 -Mt 800 -Is 3.255 -Id -1.255 -It message -Il 32 -If 0 -Ii 8 -Iv 32 
r -t 1.608436172 -Hs 5 -Hd -1 -Ni 5 -Nx 477.00 -Ny 151.00 -Nz 0.00 -Ne 49.034434 -Nl MAC -Nw --- -Ma 0 -Md ffffffff -Ms 3 -Mt 800 -Is 3.255 -Id -1.255 -It message -Il 32 -If 0 -Ii 8 -Iv 32 
r -t 1.608460776 -Hs 4 -Hd -1 -Ni 4 -Nx 343.00 -Ny 216.00 -Nz 0.00 -Ne 49.034291 -Nl RTR -Nw --- -Ma 0 -Md ffffffff -Ms 3 -Mt 800 -Is 3.255 -Id -1.255 -It message -Il 32 -If 0 -Ii 8 -Iv 32 
r -t 1.608460949 -Hs 0 -Hd -1 -Ni 0 -Nx 191.00 -Ny 327.00 -Nz 0.00 -Ne 49.034290 -Nl RTR -Nw --- -Ma 0 -Md ffffffff -Ms 3 -Mt 800 -Is 3.255 -Id -1.255 -It message -Il 32 -If 0 -Ii 8 -Iv 32 
r -t 1.608461172 -Hs 5 -Hd -1 -Ni 5 -Nx 477.00 -Ny 151.00 -Nz 0.00 -Ne 49.034434 -Nl RTR -Nw --- -Ma 0 -Md ffffffff -Ms 3 -Mt 800 -Is 3.255 -Id -1.255 -It message -Il 32 -If 0 -Ii 8 -Iv 32 
s -t 1.634825755 -Hs 5 -Hd -1 -Ni 5 -Nx 477.00 -Ny 151.00 -Nz 0.00 -Ne 49.034434 -Nl RTR -Nw --- -Ma 0 -Md 0 -Ms 0 -Mt 0 -Is 5.255 -Id -1.255 -It message -Il 32 -If 0 -Ii 9 -Iv 32 
s -t 1.635120755 -Hs 5 -Hd -1 -Ni 5 -Nx 477.00 -Ny 151.00 -Nz 0.00 -Ne 49.034434 -Nl MAC -Nw --- -Ma 0 -Md ffffffff -Ms 5 -Mt 800 -Is 5.255 -Id -1.255 -It message -Il 90 -If 0 -Ii 9 -Iv 32 
N -t 1.635121 -n 6 -e 49.017775
N -t 1.635121 -n 7 -e 49.017775
N -t 1.635121 -n 4 -e 49.017775
N -t 1.635121 -n 2 -e 49.017775
N -t 1.635121 -n 1 -e 49.017775
N -t 1.635122 -n 3 -e 49.017775
N -t 1.635122 -n 0 -e 49.017775
r -t 1.635840993 -Hs 6 -Hd -1 -Ni 6 -Nx 491.00 -Ny 221.00 -Nz 0.00 -Ne 49.017775 -Nl MAC -Nw --- -Ma 0 -Md ffffffff -Ms 5 -Mt 800 -Is 5.255 -Id -1.255 -It message -Il 32 -If 0 -Ii 9 -Iv 32 
r -t 1.635841222 -Hs 7 -Hd -1 -Ni 7 -Nx 602.00 -Ny 214.00 -Nz 0.00 -Ne 49.017775 -Nl MAC -Nw --- -Ma 0 -Md ffffffff -Ms 5 -Mt 800 -Is 5.255 -Id -1.255 -It message -Il 32 -If 0 -Ii 9 -Iv 32 
r -t 1.635841252 -Hs 4 -Hd -1 -Ni 4 -Nx 343.00 -Ny 216.00 -Nz 0.00 -Ne 49.017775 -Nl MAC -Nw --- -Ma 0 -Md ffffffff -Ms 5 -Mt 800 -Is 5.255 -Id -1.255 -It message -Il 32 -If 0 -Ii 9 -Iv 32 
r -t 1.635841444 -Hs 2 -Hd -1 -Ni 2 -Nx 503.00 -Ny 356.00 -Nz 0.00 -Ne 49.017775 -Nl MAC -Nw --- -Ma 0 -Md ffffffff -Ms 5 -Mt 800 -Is 5.255 -Id -1.255 -It message -Il 32 -If 0 -Ii 9 -Iv 32 
r -t 1.635841456 -Hs 1 -Hd -1 -Ni 1 -Nx 406.00 -Ny 349.00 -Nz 0.00 -Ne 49.017775 -Nl MAC -Nw --- -Ma 0 -Md ffffffff -Ms 5 -Mt 800 -Is 5.255 -Id -1.255 -It message -Il 32 -If 0 -Ii 9 -Iv 32 
r -t 1.635841565 -Hs 3 -Hd -1 -Ni 3 -Nx 234.00 -Ny 156.00 -Nz 0.00 -Ne 49.017775 -Nl MAC -Nw --- -Ma 0 -Md ffffffff -Ms 5 -Mt 800 -Is 5.255 -Id -1.255 -It message -Il 32 -If 0 -Ii 9 -Iv 32 
r -t 1.635865993 -Hs 6 -Hd -1 -Ni 6 -Nx 491.00 -Ny 221.00 -Nz 0.00 -Ne 49.017775 -Nl RTR -Nw --- -Ma 0 -Md ffffffff -Ms 5 -Mt 800 -Is 5.255 -Id -1.255 -It message -Il 32 -If 0 -Ii 9 -Iv 32 
r -t 1.635866222 -Hs 7 -Hd -1 -Ni 7 -Nx 602.00 -Ny 214.00 -Nz 0.00 -Ne 49.017775 -Nl RTR -Nw --- -Ma 0 -Md ffffffff -Ms 5 -Mt 800 -Is 5.255 -Id -1.255 -It message -Il 32 -If 0 -Ii 9 -Iv 32 
r -t 1.635866252 -Hs 4 -Hd -1 -Ni 4 -Nx 343.00 -Ny 216.00 -Nz 0.00 -Ne 49.017775 -Nl RTR -Nw --- -Ma 0 -Md ffffffff -Ms 5 -Mt 800 -Is 5.255 -Id -1.255 -It message -Il 32 -If 0 -Ii 9 -Iv 32 
r -t 1.635866444 -Hs 2 -Hd -1 -Ni 2 -Nx 503.00 -Ny 356.00 -Nz 0.00 -Ne 49.017775 -Nl RTR -Nw --- -Ma 0 -Md ffffffff -Ms 5 -Mt 800 -Is 5.255 -Id -1.255 -It message -Il 32 -If 0 -Ii 9 -Iv 32 
r -t 1.635866456 -Hs 1 -Hd -1 -Ni 1 -Nx 406.00 -Ny 349.00 -Nz 0.00 -Ne 49.017775 -Nl RTR -Nw --- -Ma 0 -Md ffffffff -Ms 5 -Mt 800 -Is 5.255 -Id -1.255 -It message -Il 32 -If 0 -Ii 9 -Iv 32 
r -t 1.635866565 -Hs 3 -Hd -1 -Ni 3 -Nx 234.00 -Ny 156.00 -Nz 0.00 -Ne 49.017775 -Nl RTR -Nw --- -Ma 0 -Md ffffffff -Ms 5 -Mt 800 -Is 5.255 -Id -1.255 -It message -Il 32 -If 0 -Ii 9 -Iv 32 
M 2.00000 5 (477.00, 151.00, 0.00), (977.00, 180.00), 15.00
M 2.00000 7 (602.00, 214.00, 0.00), (800.00, 223.00), 5.00
s -t 4.000000000 -Hs 2 -Hd -2 -Ni 2 -Nx 503.00 -Ny 356.00 -Nz 0.00 -Ne 49.017775 -Nl AGT -Nw --- -Ma 0 -Md 0 -Ms 0 -Mt 0 -Is 2.0 -Id 0.0 -It tcp -Il 40 -If 0 -Ii 10 -Iv 32 -Pn tcp -Ps 0 -Pa 0 -Pf 0 -Po 0 
r -t 4.000000000 -Hs 2 -Hd -2 -Ni 2 -Nx 503.00 -Ny 356.00 -Nz 0.00 -Ne 49.017775 -Nl RTR -Nw --- -Ma 0 -Md 0 -Ms 0 -Mt 0 -Is 2.0 -Id 0.0 -It tcp -Il 40 -If 0 -Ii 10 -Iv 32 -Pn tcp -Ps 0 -Pa 0 -Pf 0 -Po 0 
s -t 4.000000000 -Hs 6 -Hd -2 -Ni 6 -Nx 491.00 -Ny 221.00 -Nz 0.00 -Ne 49.017775 -Nl AGT -Nw --- -Ma 0 -Md 0 -Ms 0 -Mt 0 -Is 6.0 -Id 3.0 -It tcp -Il 40 -If 0 -Ii 11 -Iv 32 -Pn tcp -Ps 0 -Pa 0 -Pf 0 -Po 0 
r -t 4.000000000 -Hs 6 -Hd -2 -Ni 6 -Nx 491.00 -Ny 221.00 -Nz 0.00 -Ne 49.017775 -Nl RTR -Nw --- -Ma 0 -Md 0 -Ms 0 -Mt 0 -Is 6.0 -Id 3.0 -It tcp -Il 40 -If 0 -Ii 11 -Iv 32 -Pn tcp -Ps 0 -Pa 0 -Pf 0 -Po 0 
s -t 10.000000000 -Hs 2 -Hd -2 -Ni 2 -Nx 503.00 -Ny 356.00 -Nz 0.00 -Ne 49.017775 -Nl AGT -Nw --- -Ma 0 -Md 0 -Ms 0 -Mt 0 -Is 2.0 -Id 0.0 -It tcp -Il 40 -If 0 -Ii 12 -Iv 32 -Pn tcp -Ps 0 -Pa 0 -Pf 0 -Po 0 
r -t 10.000000000 -Hs 2 -Hd -2 -Ni 2 -Nx 503.00 -Ny 356.00 -Nz 0.00 -Ne 49.017775 -Nl RTR -Nw --- -Ma 0 -Md 0 -Ms 0 -Mt 0 -Is 2.0 -Id 0.0 -It tcp -Il 40 -If 0 -Ii 12 -Iv 32 -Pn tcp -Ps 0 -Pa 0 -Pf 0 -Po 0 
s -t 10.000000000 -Hs 6 -Hd -2 -Ni 6 -Nx 491.00 -Ny 221.00 -Nz 0.00 -Ne 49.017775 -Nl AGT -Nw --- -Ma 0 -Md 0 -Ms 0 -Mt 0 -Is 6.0 -Id 3.0 -It tcp -Il 40 -If 0 -Ii 13 -Iv 32 -Pn tcp -Ps 0 -Pa 0 -Pf 0 -Po 0 
r -t 10.000000000 -Hs 6 -Hd -2 -Ni 6 -Nx 491.00 -Ny 221.00 -Nz 0.00 -Ne 49.017775 -Nl RTR -Nw --- -Ma 0 -Md 0 -Ms 0 -Mt 0 -Is 6.0 -Id 3.0 -It tcp -Il 40 -If 0 -Ii 13 -Iv 32 -Pn tcp -Ps 0 -Pa 0 -Pf 0 -Po 0 
s -t 11.854146588 -Hs 1 -Hd -1 -Ni 1 -Nx 406.00 -Ny 349.00 -Nz 0.00 -Ne 49.017775 -Nl RTR -Nw --- -Ma 0 -Md 0 -Ms 0 -Mt 0 -Is 1.255 -Id -1.255 -It message -Il 32 -If 0 -Ii 14 -Iv 32 
s -t 11.854341588 -Hs 1 -Hd -1 -Ni 1 -Nx 406.00 -Ny 349.00 -Nz 0.00 -Ne 49.017775 -Nl MAC -Nw --- -Ma 0 -Md ffffffff -Ms 1 -Mt 800 -Is 1.255 -Id -1.255 -It message -Il 90 -If 0 -Ii 14 -Iv 32 
N -t 11.854342 -n 2 -e 42.886171
N -t 11.854342 -n 4 -e 42.886171
N -t 11.854342 -n 6 -e 42.886171
N -t 11.854342 -n 0 -e 42.886171
N -t 11.854342 -n 3 -e 42.886171
N -t 11.854343 -n 7 -e 42.886170
N -t 11.854343 -n 5 -e 42.886170
r -t 11.855061912 -Hs 2 -Hd -1 -Ni 2 -Nx 503.00 -Ny 356.00 -Nz 0.00 -Ne 42.886171 -Nl MAC -Nw --- -Ma 0 -Md ffffffff -Ms 1 -Mt 800 -Is 1.255 -Id -1.255 -It message -Il 32 -If 0 -Ii 14 -Iv 32 
r -t 11.855062079 -Hs 4 -Hd -1 -Ni 4 -Nx 343.00 -Ny 216.00 -Nz 0.00 -Ne 42.886171 -Nl MAC -Nw --- -Ma 0 -Md ffffffff -Ms 1 -Mt 800 -Is 1.255 -Id -1.255 -It message -Il 32 -If 0 -Ii 14 -Iv 32 
r -t 11.855062100 -Hs 6 -Hd -1 -Ni 6 -Nx 491.00 -Ny 221.00 -Nz 0.00 -Ne 42.886171 -Nl MAC -Nw --- -Ma 0 -Md ffffffff -Ms 1 -Mt 800 -Is 1.255 -Id -1.255 -It message -Il 32 -If 0 -Ii 14 -Iv 32 
r -t 11.855062308 -Hs 0 -Hd -1 -Ni 0 -Nx 191.00 -Ny 327.00 -Nz 0.00 -Ne 42.886171 -Nl MAC -Nw --- -Ma 0 -Md ffffffff -Ms 1 -Mt 800 -Is 1.255 -Id -1.255 -It message -Il 32 -If 0 -Ii 14 -Iv 32 
r -t 11.855086912 -Hs 2 -Hd -1 -Ni 2 -Nx 503.00 -Ny 356.00 -Nz 0.00 -Ne 42.886171 -Nl RTR -Nw --- -Ma 0 -Md ffffffff -Ms 1 -Mt 800 -Is 1.255 -Id -1.255 -It message -Il 32 -If 0 -Ii 14 -Iv 32 
r -t 11.855087079 -Hs 4 -Hd -1 -Ni 4 -Nx 343.00 -Ny 216.00 -Nz 0.00 -Ne 42.886171 -Nl RTR -Nw --- -Ma 0 -Md ffffffff -Ms 1 -Mt 800 -Is 1.255 -Id -1.255 -It message -Il 32 -If 0 -Ii 14 -Iv 32 
r -t 11.855087100 -Hs 6 -Hd -1 -Ni 6 -Nx 491.00 -Ny 221.00 -Nz 0.00 -Ne 42.886171 -Nl RTR -Nw --- -Ma 0 -Md ffffffff -Ms 1 -Mt 800 -Is 1.255 -Id -1.255 -It message -Il 32 -If 0 -Ii 14 -Iv 32 
r -t 11.855087308 -Hs 0 -Hd -1 -Ni 0 -Nx 191.00 -Ny 327.00 -Nz 0.00 -Ne 42.886171 -Nl RTR -Nw --- -Ma 0 -Md ffffffff -Ms 1 -Mt 800 -Is 1.255 -Id -1.255 -It message -Il 32 -If 0 -Ii 14 -Iv 32 
s -t 12.033591774 -Hs 4 -Hd -1 -Ni 4 -Nx 343.00 -Ny 216.00 -Nz 0.00 -Ne 42.886171 -Nl RTR -Nw --- -Ma 0 -Md 0 -Ms 0 -Mt 0 -Is 4.255 -Id -1.255 -It message -Il 32 -If 0 -Ii 16 -Iv 32 
s -t 12.033846774 -Hs 4 -Hd -1 -Ni 4 -Nx 343.00 -Ny 216.00 -Nz 0.00 -Ne 42.886171 -Nl MAC -Nw --- -Ma 0 -Md ffffffff -Ms 4 -Mt 800 -Is 4.255 -Id -1.255 -It message -Il 90 -If 0 -Ii 16 -Iv 32 
N -t 12.033847 -n 3 -e 42.778396
N -t 12.033847 -n 1 -e 42.778252
N -t 12.033847 -n 6 -e 42.778396
N -t 12.033847 -n 0 -e 42.778396
N -t 12.033847 -n 2 -e 42.778396
N -t 12.033848 -n 5 -e 42.778395
N -t 12.033848 -n 7 -e 42.778395
r -t 12.034567189 -Hs 3 -Hd -1 -Ni 3 -Nx 234.00 -Ny 156.00 -Nz 0.00 -Ne 42.778396 -Nl MAC -Nw --- -Ma 0 -Md ffffffff -Ms 4 -Mt 800 -Is 4.255 -Id -1.255 -It message -Il 32 -If 0 -Ii 16 -Iv 32 
r -t 12.034567265 -Hs 1 -Hd -1 -Ni 1 -Nx 406.00 -Ny 349.00 -Nz 0.00 -Ne 42.778252 -Nl MAC -Nw --- -Ma 0 -Md ffffffff -Ms 4 -Mt 800 -Is 4.255 -Id -1.255 -It message -Il 32 -If 0 -Ii 16 -Iv 32 
r -t 12.034567268 -Hs 6 -Hd -1 -Ni 6 -Nx 491.00 -Ny 221.00 -Nz 0.00 -Ne 42.778396 -Nl MAC -Nw --- -Ma 0 -Md ffffffff -Ms 4 -Mt 800 -Is 4.255 -Id -1.255 -It message -Il 32 -If 0 -Ii 16 -Iv 32 
r -t 12.034567402 -Hs 0 -Hd -1 -Ni 0 -Nx 191.00 -Ny 327.00 -Nz 0.00 -Ne 42.778396 -Nl MAC -Nw --- -Ma 0 -Md ffffffff -Ms 4 -Mt 800 -Is 4.255 -Id -1.255 -It message -Il 32 -If 0 -Ii 16 -Iv 32 
r -t 12.034567483 -Hs 2 -Hd -1 -Ni 2 -Nx 503.00 -Ny 356.00 -Nz 0.00 -Ne 42.778396 -Nl MAC -Nw --- -Ma 0 -Md ffffffff -Ms 4 -Mt 800 -Is 4.255 -Id -1.255 -It message -Il 32 -If 0 -Ii 16 -Iv 32 
r -t 12.034592189 -Hs 3 -Hd -1 -Ni 3 -Nx 234.00 -Ny 156.00 -Nz 0.00 -Ne 42.778396 -Nl RTR -Nw --- -Ma 0 -Md ffffffff -Ms 4 -Mt 800 -Is 4.255 -Id -1.255 -It message -Il 32 -If 0 -Ii 16 -Iv 32 
r -t 12.034592265 -Hs 1 -Hd -1 -Ni 1 -Nx 406.00 -Ny 349.00 -Nz 0.00 -Ne 42.778252 -Nl RTR -Nw --- -Ma 0 -Md ffffffff -Ms 4 -Mt 800 -Is 4.255 -Id -1.255 -It message -Il 32 -If 0 -Ii 16 -Iv 32 
r -t 12.034592268 -Hs 6 -Hd -1 -Ni 6 -Nx 491.00 -Ny 221.00 -Nz 0.00 -Ne 42.778396 -Nl RTR -Nw --- -Ma 0 -Md ffffffff -Ms 4 -Mt 800 -Is 4.255 -Id -1.255 -It message -Il 32 -If 0 -Ii 16 -Iv 32 
r -t 12.034592402 -Hs 0 -Hd -1 -Ni 0 -Nx 191.00 -Ny 327.00 -Nz 0.00 -Ne 42.778396 -Nl RTR -Nw --- -Ma 0 -Md ffffffff -Ms 4 -Mt 800 -Is 4.255 -Id -1.255 -It message -Il 32 -If 0 -Ii 16 -Iv 32 
r -t 12.034592483 -Hs 2 -Hd -1 -Ni 2 -Nx 503.00 -Ny 356.00 -Nz 0.00 -Ne 42.778396 -Nl RTR -Nw --- -Ma 0 -Md ffffffff -Ms 4 -Mt 800 -Is 4.255 -Id -1.255 -It message -Il 32 -If 0 -Ii 16 -Iv 32 
s -t 12.034592483 -Hs 2 -Hd 4 -Ni 2 -Nx 503.00 -Ny 356.00 -Nz 0.00 -Ne 42.778396 -Nl RTR -Nw --- -Ma 0 -Md 0 -Ms 0 -Mt 0 -Is 2.0 -Id 0.0 -It tcp -Il 80 -If 0 -Ii 5 -Iv 32 -Pn tcp -Ps 0 -Pa 0 -Pf 0 -Po 0 
s -t 12.034592483 -Hs 2 -Hd 4 -Ni 2 -Nx 503.00 -Ny 356.00 -Nz 0.00 -Ne 42.778396 -Nl RTR -Nw --- -Ma 0 -Md 0 -Ms 0 -Mt 0 -Is 2.0 -Id 0.0 -It tcp -Il 80 -If 0 -Ii 10 -Iv 32 -Pn tcp -Ps 0 -Pa 0 -Pf 0 -Po 0 
d -t 12.034592483 -Hs 2 -Hd 4 -Ni 2 -Nx 503.00 -Ny 356.00 -Nz 0.00 -Ne 42.778396 -Nl IFQ -Nw ARP -Ma 0 -Md 0 -Ms 2 -Mt 800 -Is 2.0 -Id 0.0 -It tcp -Il 80 -If 0 -Ii 5 -Iv 32 -Pn tcp -Ps 0 -Pa 0 -Pf 0 -Po 0 
s -t 12.034592483 -Hs 2 -Hd 4 -Ni 2 -Nx 503.00 -Ny 356.00 -Nz 0.00 -Ne 42.778396 -Nl RTR -Nw --- -Ma 0 -Md 0 -Ms 0 -Mt 0 -Is 2.0 -Id 0.0 -It tcp -Il 80 -If 0 -Ii 12 -Iv 32 -Pn tcp -Ps 0 -Pa 0 -Pf 0 -Po 0 
d -t 12.034592483 -Hs 2 -Hd 4 -Ni 2 -Nx 503.00 -Ny 356.00 -Nz 0.00 -Ne 42.778396 -Nl IFQ -Nw ARP -Ma 0 -Md 0 -Ms 2 -Mt 800 -Is 2.0 -Id 0.0 -It tcp -Il 80 -If 0 -Ii 10 -Iv 32 -Pn tcp -Ps 0 -Pa 0 -Pf 0 -Po 0 
s -t 12.035127483 -Hs 2 -Hd -2 -Ni 2 -Nx 503.00 -Ny 356.00 -Nz 0.00 -Ne 42.778396 -Nl MAC -Nw --- -Ma 0 -Md ffffffff -Ms 2 -Mt 806 -P arp -Po REQUEST -Pms 2 -Ps 2 -Pmd 0 -Pd 4 
N -t 12.035128 -n 1 -e 42.777434
N -t 12.035128 -n 6 -e 42.777578
N -t 12.035128 -n 7 -e 42.777578
N -t 12.035128 -n 4 -e 42.777433
N -t 12.035128 -n 5 -e 42.777577
N -t 12.035129 -n 0 -e 42.777577
N -t 12.035129 -n 3 -e 42.777577
s -t 12.035717327 -Hs 3 -Hd -1 -Ni 3 -Nx 234.00 -Ny 156.00 -Nz 0.00 -Ne 42.777577 -Nl RTR -Nw --- -Ma 0 -Md 0 -Ms 0 -Mt 0 -Is 3.255 -Id -1.255 -It message -Il 32 -If 0 -Ii 15 -Iv 32 
r -t 12.035815807 -Hs 1 -Hd -2 -Ni 1 -Nx 406.00 -Ny 349.00 -Nz 0.00 -Ne 42.777434 -Nl MAC -Nw --- -Ma 0 -Md ffffffff -Ms 2 -Mt 806 -P arp -Po REQUEST -Pms 2 -Ps 2 -Pmd 0 -Pd 4 
r -t 12.035815935 -Hs 6 -Hd -2 -Ni 6 -Nx 491.00 -Ny 221.00 -Nz 0.00 -Ne 42.777578 -Nl MAC -Nw --- -Ma 0 -Md ffffffff -Ms 2 -Mt 806 -P arp -Po REQUEST -Pms 2 -Ps 2 -Pmd 0 -Pd 4 
r -t 12.035816164 -Hs 7 -Hd -2 -Ni 7 -Nx 652.13 -Ny 216.28 -Nz 0.00 -Ne 42.777578 -Nl MAC -Nw --- -Ma 0 -Md ffffffff -Ms 2 -Mt 806 -P arp -Po REQUEST -Pms 2 -Ps 2 -Pmd 0 -Pd 4 
r -t 12.035816192 -Hs 4 -Hd -2 -Ni 4 -Nx 343.00 -Ny 216.00 -Nz 0.00 -Ne 42.777433 -Nl MAC -Nw --- -Ma 0 -Md ffffffff -Ms 2 -Mt 806 -P arp -Po REQUEST -Pms 2 -Ps 2 -Pmd 0 -Pd 4 
r -t 12.035816257 -Hs 5 -Hd -2 -Ni 5 -Nx 627.28 -Ny 159.72 -Nz 0.00 -Ne 42.777577 -Nl MAC -Nw --- -Ma 0 -Md ffffffff -Ms 2 -Mt 806 -P arp -Po REQUEST -Pms 2 -Ps 2 -Pmd 0 -Pd 4 
s -t 12.036085483 -Hs 2 -Hd -2 -Ni 2 -Nx 503.00 -Ny 356.00 -Nz 0.00 -Ne 42.777440 -Nl MAC -Nw --- -Ma 0 -Md ffffffff -Ms 2 -Mt 806 -P arp -Po REQUEST -Pms 2 -Ps 2 -Pmd 0 -Pd 4 
N -t 12.036086 -n 1 -e 42.776790
N -t 12.036086 -n 6 -e 42.776934
N -t 12.036086 -n 7 -e 42.776934
N -t 12.036086 -n 4 -e 42.776790
N -t 12.036086 -n 5 -e 42.776934
N -t 12.036087 -n 0 -e 42.776934
N -t 12.036087 -n 3 -e 42.776934
r -t 12.036773807 -Hs 1 -Hd -2 -Ni 1 -Nx 406.00 -Ny 349.00 -Nz 0.00 -Ne 42.776790 -Nl MAC -Nw --- -Ma 0 -Md ffffffff -Ms 2 -Mt 806 -P arp -Po REQUEST -Pms 2 -Ps 2 -Pmd 0 -Pd 4 
r -t 12.036773935 -Hs 6 -Hd -2 -Ni 6 -Nx 491.00 -Ny 221.00 -Nz 0.00 -Ne 42.776934 -Nl MAC -Nw --- -Ma 0 -Md ffffffff -Ms 2 -Mt 806 -P arp -Po REQUEST -Pms 2 -Ps 2 -Pmd 0 -Pd 4 
r -t 12.036774164 -Hs 7 -Hd -2 -Ni 7 -Nx 652.13 -Ny 216.28 -Nz 0.00 -Ne 42.776934 -Nl MAC -Nw --- -Ma 0 -Md ffffffff -Ms 2 -Mt 806 -P arp -Po REQUEST -Pms 2 -Ps 2 -Pmd 0 -Pd 4 