n -t * -s 0  -x 191 -y 327 -Z 0 -z 20  -v circle -c green
n -t * -s 1  -x 406 -y 349 -Z 0 -z 20  -v circle -c green
n -t * -s 2  -x 503 -y 356 -Z 0 -z 20  -v circle -c green
n -t * -s 3  -x 234 -y 156 -Z 0 -z 20  -v circle -c green
n -t * -s 4  -x 343 -y 216 -Z 0 -z 20  -v circle -c green
n -t * -s 5  -x 477 -y 151 -Z 0 -z 20  -v circle -c green
n -t * -s 6  -x 491 -y 221 -Z 0 -z 20  -v circle -c green
n -t * -s 7  -x 602 -y 214 -Z 0 -z 20  -v circle -c green
V -t * -v 1.0a5 -a 0
W -t * -x 1077 -y 456
A -t * -n 1 -p 0 -o 0x7fffffff -c 30 -a 1
A -t * -h 1 -m 1073741823 -s 0
+ -t 1.000000000 -s 2 -d -1 -p tcp -e 40 -c 2 -a 0 -i 0 -k AGT 
- -t 1.000000000 -s 2 -d -1 -p tcp -e 40 -c 2 -a 0 -i 0 -k AGT
h -t 1.000000000 -s 2 -d -1 -p tcp -e 40 -c 2 -a 0 -i 0 -k AGT
+ -t 1.000000000 -s 6 -d -1 -p tcp -e 40 -c 2 -a 0 -i 2 -k AGT 
- -t 1.000000000 -s 6 -d -1 -p tcp -e 40 -c 2 -a 0 -i 2 -k AGT
h -t 1.000000000 -s 6 -d -1 -p tcp -e 40 -c 2 -a 0 -i 2 -k AGT
+ -t 1.004170294 -s 6 -d -1 -p DSR -e 32 -c 2 -a 0 -i 3 -k RTR 
- -t 1.004170294 -s 6 -d -1 -p DSR -e 32 -c 2 -a 0 -i 3 -k RTR
h -t 1.004170294 -s 6 -d -1 -p DSR -e 32 -c 2 -a 0 -i 3 -k RTR
+ -t 1.004605294 -s 6 -d -1 -p DSR -e 90 -c 2 -a 0 -i 3 -k MAC 
- -t 1.004605294 -s 6 -d -1 -p DSR -e 90 -c 2 -a 0 -i 3 -k MAC
h -t 1.004605294 -s 6 -d -1 -p DSR -e 90 -c 2 -a 0 -i 3 -k MAC
r -t 1.005325532 -s 5 -d -1 -p DSR -e 32 -c 2 -a 0 -i 3 -k MAC
r -t 1.005325665 -s 7 -d -1 -p DSR -e 32 -c 2 -a 0 -i 3 -k MAC
r -t 1.005325746 -s 2 -d -1 -p DSR -e 32 -c 2 -a 0 -i 3 -k MAC
r -t 1.005325787 -s 4 -d -1 -p DSR -e 32 -c 2 -a 0 -i 3 -k MAC
r -t 1.005325806 -s 1 -d -1 -p DSR -e 32 -c 2 -a 0 -i 3 -k MAC
+ -t 1.005802322 -s 2 -d -1 -p DSR -e 32 -c 2 -a 0 -i 1 -k RTR 
- -t 1.005802322 -s 2 -d -1 -p DSR -e 32 -c 2 -a 0 -i 1 -k RTR
h -t 1.005802322 -s 2 -d -1 -p DSR -e 32 -c 2 -a 0 -i 1 -k RTR
+ -t 1.006097322 -s 2 -d -1 -p DSR -e 90 -c 2 -a 0 -i 1 -k MAC 
- -t 1.006097322 -s 2 -d -1 -p DSR -e 90 -c 2 -a 0 -i 1 -k MAC
h -t 1.006097322 -s 2 -d -1 -p DSR -e 90 -c 2 -a 0 -i 1 -k MAC
r -t 1.006817646 -s 1 -d -1 -p DSR -e 32 -c 2 -a 0 -i 1 -k MAC
r -t 1.006817774 -s 6 -d -1 -p DSR -e 32 -c 2 -a 0 -i 1 -k MAC
r -t 1.006817899 -s 7 -d -1 -p DSR -e 32 -c 2 -a 0 -i 1 -k MAC
r -t 1.006818011 -s 5 -d -1 -p DSR -e 32 -c 2 -a 0 -i 1 -k MAC
r -t 1.006818031 -s 4 -d -1 -p DSR -e 32 -c 2 -a 0 -i 1 -k MAC
+ -t 1.073104944 -s 2 -d -1 -p DSR -e 32 -c 2 -a 0 -i 6 -k RTR 
- -t 1.073104944 -s 2 -d -1 -p DSR -e 32 -c 2 -a 0 -i 6 -k RTR
h -t 1.073104944 -s 2 -d -1 -p DSR -e 32 -c 2 -a 0 -i 6 -k RTR
+ -t 1.073539944 -s 2 -d -1 -p DSR -e 90 -c 2 -a 0 -i 6 -k MAC 
- -t 1.073539944 -s 2 -d -1 -p DSR -e 90 -c 2 -a 0 -i 6 -k MAC
h -t 1.073539944 -s 2 -d -1 -p DSR -e 90 -c 2 -a 0 -i 6 -k MAC
r -t 1.074260268 -s 1 -d -1 -p DSR -e 32 -c 2 -a 0 -i 6 -k MAC
r -t 1.074260396 -s 6 -d -1 -p DSR -e 32 -c 2 -a 0 -i 6 -k MAC
r -t 1.074260521 -s 7 -d -1 -p DSR -e 32 -c 2 -a 0 -i 6 -k MAC
r -t 1.074260633 -s 5 -d -1 -p DSR -e 32 -c 2 -a 0 -i 6 -k MAC
r -t 1.074260653 -s 4 -d -1 -p DSR -e 32 -c 2 -a 0 -i 6 -k MAC
+ -t 1.074683677 -s 7 -d -1 -p DSR -e 48 -c 2 -a 0 -i 6 -k RTR 
- -t 1.074683677 -s 7 -d -1 -p DSR -e 48 -c 2 -a 0 -i 6 -k RTR
h -t 1.074683677 -s 7 -d -1 -p DSR -e 48 -c 2 -a 0 -i 6 -k RTR
+ -t 1.074858677 -s 7 -d -1 -p DSR -e 106 -c 2 -a 0 -i 6 -k MAC 
- -t 1.074858677 -s 7 -d -1 -p DSR -e 106 -c 2 -a 0 -i 6 -k MAC
h -t 1.074858677 -s 7 -d -1 -p DSR -e 106 -c 2 -a 0 -i 6 -k MAC
r -t 1.075707047 -s 6 -d -1 -p DSR -e 48 -c 2 -a 0 -i 6 -k MAC
r -t 1.075707143 -s 5 -d -1 -p DSR -e 48 -c 2 -a 0 -i 6 -k MAC
r -t 1.075707254 -s 2 -d -1 -p DSR -e 48 -c 2 -a 0 -i 6 -k MAC
r -t 1.075707470 -s 1 -d -1 -p DSR -e 48 -c 2 -a 0 -i 6 -k MAC
+ -t 1.077817661 -s 1 -d -1 -p DSR -e 48 -c 2 -a 0 -i 6 -k RTR 
- -t 1.077817661 -s 1 -d -1 -p DSR -e 48 -c 2 -a 0 -i 6 -k RTR
h -t 1.077817661 -s 1 -d -1 -p DSR -e 48 -c 2 -a 0 -i 6 -k RTR
+ -t 1.078272661 -s 1 -d -1 -p DSR -e 106 -c 2 -a 0 -i 6 -k MAC 
- -t 1.078272661 -s 1 -d -1 -p DSR -e 106 -c 2 -a 0 -i 6 -k MAC
h -t 1.078272661 -s 1 -d -1 -p DSR -e 106 -c 2 -a 0 -i 6 -k MAC
+ -t 1.078611957 -s 4 -d -1 -p DSR -e 48 -c 2 -a 0 -i 6 -k RTR 
- -t 1.078611957 -s 4 -d -1 -p DSR -e 48 -c 2 -a 0 -i 6 -k RTR
h -t 1.078611957 -s 4 -d -1 -p DSR -e 48 -c 2 -a 0 -i 6 -k RTR
+ -t 1.079061001 -s 6 -d -1 -p DSR -e 48 -c 2 -a 0 -i 6 -k RTR 
- -t 1.079061001 -s 6 -d -1 -p DSR -e 48 -c 2 -a 0 -i 6 -k RTR
h -t 1.079061001 -s 6 -d -1 -p DSR -e 48 -c 2 -a 0 -i 6 -k RTR
r -t 1.079120985 -s 2 -d -1 -p DSR -e 48 -c 2 -a 0 -i 6 -k MAC
r -t 1.079121151 -s 4 -d -1 -p DSR -e 48 -c 2 -a 0 -i 6 -k MAC
r -t 1.079121173 -s 6 -d -1 -p DSR -e 48 -c 2 -a 0 -i 6 -k MAC
r -t 1.079121362 -s 5 -d -1 -p DSR -e 48 -c 2 -a 0 -i 6 -k MAC
r -t 1.079121381 -s 0 -d -1 -p DSR -e 48 -c 2 -a 0 -i 6 -k MAC
r -t 1.079121454 -s 7 -d -1 -p DSR -e 48 -c 2 -a 0 -i 6 -k MAC
+ -t 1.079575684 -s 6 -d -1 -p DSR -e 32 -c 2 -a 0 -i 7 -k RTR 
- -t 1.079575684 -s 6 -d -1 -p DSR -e 32 -c 2 -a 0 -i 7 -k RTR
h -t 1.079575684 -s 6 -d -1 -p DSR -e 32 -c 2 -a 0 -i 7 -k RTR
+ -t 1.079651151 -s 4 -d -1 -p DSR -e 106 -c 2 -a 0 -i 6 -k MAC 
- -t 1.079651151 -s 4 -d -1 -p DSR -e 106 -c 2 -a 0 -i 6 -k MAC
h -t 1.079651151 -s 4 -d -1 -p DSR -e 106 -c 2 -a 0 -i 6 -k MAC
r -t 1.080499566 -s 3 -d -1 -p DSR -e 48 -c 2 -a 0 -i 6 -k MAC
r -t 1.080499642 -s 1 -d -1 -p DSR -e 48 -c 2 -a 0 -i 6 -k MAC
r -t 1.080499645 -s 6 -d -1 -p DSR -e 48 -c 2 -a 0 -i 6 -k MAC
r -t 1.080499648 -s 5 -d -1 -p DSR -e 48 -c 2 -a 0 -i 6 -k MAC
r -t 1.080499779 -s 0 -d -1 -p DSR -e 48 -c 2 -a 0 -i 6 -k MAC
r -t 1.080499860 -s 2 -d -1 -p DSR -e 48 -c 2 -a 0 -i 6 -k MAC
+ -t 1.080669645 -s 6 -d -1 -p DSR -e 106 -c 2 -a 0 -i 6 -k MAC 
- -t 1.080669645 -s 6 -d -1 -p DSR -e 106 -c 2 -a 0 -i 6 -k MAC
h -t 1.080669645 -s 6 -d -1 -p DSR -e 106 -c 2 -a 0 -i 6 -k MAC
+ -t 1.081078346 -s 0 -d 4 -p DSR -e 52 -c 2 -a 0 -i 9 -k RTR 
- -t 1.081078346 -s 0 -d 4 -p DSR -e 52 -c 2 -a 0 -i 9 -k RTR
h -t 1.081078346 -s 0 -d 4 -p DSR -e 52 -c 2 -a 0 -i 9 -k RTR
r -t 1.081517883 -s 5 -d -1 -p DSR -e 48 -c 2 -a 0 -i 6 -k MAC
r -t 1.081518016 -s 7 -d -1 -p DSR -e 48 -c 2 -a 0 -i 6 -k MAC
r -t 1.081518097 -s 2 -d -1 -p DSR -e 48 -c 2 -a 0 -i 6 -k MAC
r -t 1.081518139 -s 4 -d -1 -p DSR -e 48 -c 2 -a 0 -i 6 -k MAC
r -t 1.081518157 -s 1 -d -1 -p DSR -e 48 -c 2 -a 0 -i 6 -k MAC
+ -t 1.081828627 -s 3 -d -1 -p DSR -e 68 -c 2 -a 0 -i 6 -k RTR 
- -t 1.081828627 -s 3 -d -1 -p DSR -e 68 -c 2 -a 0 -i 6 -k RTR
h -t 1.081828627 -s 3 -d -1 -p DSR -e 68 -c 2 -a 0 -i 6 -k RTR
+ -t 1.082147645 -s 6 -d -1 -p DSR -e 90 -c 2 -a 0 -i 7 -k MAC 
- -t 1.082147645 -s 6 -d -1 -p DSR -e 90 -c 2 -a 0 -i 7 -k MAC
h -t 1.082147645 -s 6 -d -1 -p DSR -e 90 -c 2 -a 0 -i 7 -k MAC
r -t 1.082867883 -s 5 -d -1 -p DSR -e 32 -c 2 -a 0 -i 7 -k MAC
r -t 1.082868016 -s 7 -d -1 -p DSR -e 32 -c 2 -a 0 -i 7 -k MAC
r -t 1.082868097 -s 2 -d -1 -p DSR -e 32 -c 2 -a 0 -i 7 -k MAC
r -t 1.082868139 -s 4 -d -1 -p DSR -e 32 -c 2 -a 0 -i 7 -k MAC
r -t 1.082868157 -s 1 -d -1 -p DSR -e 32 -c 2 -a 0 -i 7 -k MAC
+ -t 1.083302529 -s 3 -d -1 -p DSR -e 126 -c 2 -a 0 -i 6 -k MAC 
- -t 1.083302529 -s 3 -d -1 -p DSR -e 126 -c 2 -a 0 -i 6 -k MAC
h -t 1.083302529 -s 3 -d -1 -p DSR -e 126 -c 2 -a 0 -i 6 -k MAC
+ -t 1.083593796 -s 0 -d 1 -p DSR -e 52 -c 2 -a 0 -i 8 -k RTR 
- -t 1.083593796 -s 0 -d 1 -p DSR -e 52 -c 2 -a 0 -i 8 -k RTR
h -t 1.083593796 -s 0 -d 1 -p DSR -e 52 -c 2 -a 0 -i 8 -k RTR
+ -t 1.084158199 -s 5 -d -1 -p DSR -e 48 -c 2 -a 0 -i 6 -k RTR 
- -t 1.084158199 -s 5 -d -1 -p DSR -e 48 -c 2 -a 0 -i 6 -k RTR
h -t 1.084158199 -s 5 -d -1 -p DSR -e 48 -c 2 -a 0 -i 6 -k RTR
r -t 1.084310943 -s 4 -d -1 -p DSR -e 68 -c 2 -a 0 -i 6 -k MAC
r -t 1.084311116 -s 0 -d -1 -p DSR -e 68 -c 2 -a 0 -i 6 -k MAC
r -t 1.084311339 -s 5 -d -1 -p DSR -e 68 -c 2 -a 0 -i 6 -k MAC
+ -t 1.084561116 -s 0 -d -1 -p ARP -e 86 -c 2 -a 0 -i 0 -k MAC 
- -t 1.084561116 -s 0 -d -1 -p ARP -e 86 -c 2 -a 0 -i 0 -k MAC
h -t 1.084561116 -s 0 -d -1 -p ARP -e 86 -c 2 -a 0 -i 0 -k MAC
r -t 1.085249704 -s 3 -d -1 -p ARP -e 28 -c 2 -a 0 -i 0 -k MAC
r -t 1.085249744 -s 4 -d -1 -p ARP -e 28 -c 2 -a 0 -i 0 -k MAC
r -t 1.085249837 -s 1 -d -1 -p ARP -e 28 -c 2 -a 0 -i 0 -k MAC
+ -t 1.085579116 -s 0 -d -1 -p ARP -e 86 -c 2 -a 0 -i 0 -k MAC 
- -t 1.085579116 -s 0 -d -1 -p ARP -e 86 -c 2 -a 0 -i 0 -k MAC
h -t 1.085579116 -s 0 -d -1 -p ARP -e 86 -c 2 -a 0 -i 0 -k MAC
r -t 1.086267704 -s 3 -d -1 -p ARP -e 28 -c 2 -a 0 -i 0 -k MAC
r -t 1.086267744 -s 4 -d -1 -p ARP -e 28 -c 2 -a 0 -i 0 -k MAC
r -t 1.086267837 -s 1 -d -1 -p ARP -e 28 -c 2 -a 0 -i 0 -k MAC
+ -t 1.086631241 -s 5 -d -1 -p DSR -e 48 -c 2 -a 0 -i 7 -k RTR 
- -t 1.086631241 -s 5 -d -1 -p DSR -e 48 -c 2 -a 0 -i 7 -k RTR
h -t 1.086631241 -s 5 -d -1 -p DSR -e 48 -c 2 -a 0 -i 7 -k RTR
+ -t 1.086657744 -s 4 -d -1 -p RTS -e 44 -c 2 -a 0 -i 0 -k MAC 
- -t 1.086657744 -s 4 -d -1 -p RTS -e 44 -c 2 -a 0 -i 0 -k MAC
h -t 1.086657744 -s 4 -d -1 -p RTS -e 44 -c 2 -a 0 -i 0 -k MAC
r -t 1.087010371 -s 0 -d -1 -p RTS -e 44 -c 2 -a 0 -i 0 -k MAC
+ -t 1.087020371 -s 0 -d -1 -p CTS -e 38 -c 2 -a 0 -i 0 -k MAC 
- -t 1.087020371 -s 0 -d -1 -p CTS -e 38 -c 2 -a 0 -i 0 -k MAC
h -t 1.087020371 -s 0 -d -1 -p CTS -e 38 -c 2 -a 0 -i 0 -k MAC
+ -t 1.087172011 -s 2 -d -1 -p DSR -e 48 -c 2 -a 0 -i 7 -k RTR 
- -t 1.087172011 -s 2 -d -1 -p DSR -e 48 -c 2 -a 0 -i 7 -k RTR
h -t 1.087172011 -s 2 -d -1 -p DSR -e 48 -c 2 -a 0 -i 7 -k RTR
r -t 1.087324999 -s 4 -d -1 -p CTS -e 38 -c 2 -a 0 -i 0 -k MAC
+ -t 1.087334999 -s 4 -d -1 -p ARP -e 86 -c 2 -a 0 -i 0 -k MAC 
- -t 1.087334999 -s 4 -d -1 -p ARP -e 86 -c 2 -a 0 -i 0 -k MAC
h -t 1.087334999 -s 4 -d -1 -p ARP -e 86 -c 2 -a 0 -i 0 -k MAC
r -t 1.088023626 -s 0 -d -1 -p ARP -e 28 -c 2 -a 0 -i 0 -k MAC
+ -t 1.088033626 -s 0 -d -1 -p ACK -e 38 -c 2 -a 0 -i 0 -k MAC 
- -t 1.088033626 -s 0 -d -1 -p ACK -e 38 -c 2 -a 0 -i 0 -k MAC
h -t 1.088033626 -s 0 -d -1 -p ACK -e 38 -c 2 -a 0 -i 0 -k MAC
+ -t 1.088328937 -s 4 -d -1 -p DSR -e 48 -c 2 -a 0 -i 7 -k RTR 
- -t 1.088328937 -s 4 -d -1 -p DSR -e 48 -c 2 -a 0 -i 7 -k RTR
h -t 1.088328937 -s 4 -d -1 -p DSR -e 48 -c 2 -a 0 -i 7 -k RTR
r -t 1.088338253 -s 4 -d -1 -p ACK -e 38 -c 2 -a 0 -i 0 -k MAC
+ -t 1.088467626 -s 0 -d -1 -p RTS -e 44 -c 2 -a 0 -i 0 -k MAC 
- -t 1.088467626 -s 0 -d -1 -p RTS -e 44 -c 2 -a 0 -i 0 -k MAC
h -t 1.088467626 -s 0 -d -1 -p RTS -e 44 -c 2 -a 0 -i 0 -k MAC
r -t 1.088820253 -s 4 -d -1 -p RTS -e 44 -c 2 -a 0 -i 0 -k MAC
+ -t 1.088830253 -s 4 -d -1 -p CTS -e 38 -c 2 -a 0 -i 0 -k MAC 
- -t 1.088830253 -s 4 -d -1 -p CTS -e 38 -c 2 -a 0 -i 0 -k MAC
h -t 1.088830253 -s 4 -d -1 -p CTS -e 38 -c 2 -a 0 -i 0 -k MAC
r -t 1.089134881 -s 0 -d -1 -p CTS -e 38 -c 2 -a 0 -i 0 -k MAC
+ -t 1.089144881 -s 0 -d 4 -p DSR -e 110 -c 2 -a 0 -i 9 -k MAC 
- -t 1.089144881 -s 0 -d 4 -p DSR -e 110 -c 2 -a 0 -i 9 -k MAC
h -t 1.089144881 -s 0 -d 4 -p DSR -e 110 -c 2 -a 0 -i 9 -k MAC
+ -t 1.089537130 -s 0 -d 3 -p DSR -e 60 -c 2 -a 0 -i 10 -k RTR 
- -t 1.089537130 -s 0 -d 3 -p DSR -e 60 -c 2 -a 0 -i 10 -k RTR
h -t 1.089537130 -s 0 -d 3 -p DSR -e 60 -c 2 -a 0 -i 10 -k RTR
r -t 1.090025508 -s 4 -d 4 -p DSR -e 52 -c 2 -a 0 -i 9 -k MAC
+ -t 1.090035508 -s 4 -d -1 -p ACK -e 38 -c 2 -a 0 -i 0 -k MAC 
- -t 1.090035508 -s 4 -d -1 -p ACK -e 38 -c 2 -a 0 -i 0 -k MAC
h -t 1.090035508 -s 4 -d -1 -p ACK -e 38 -c 2 -a 0 -i 0 -k MAC
+ -t 1.090050508 -s 4 -d 2 -p DSR -e 52 -c 2 -a 0 -i 9 -k RTR 
- -t 1.090050508 -s 4 -d 2 -p DSR -e 52 -c 2 -a 0 -i 9 -k RTR
h -t 1.090050508 -s 4 -d 2 -p DSR -e 52 -c 2 -a 0 -i 9 -k RTR
r -t 1.090340135 -s 0 -d -1 -p ACK -e 38 -c 2 -a 0 -i 0 -k MAC
+ -t 1.090569999 -s 1 -d -1 -p RTS -e 44 -c 2 -a 0 -i 0 -k MAC 
- -t 1.090569999 -s 1 -d -1 -p RTS -e 44 -c 2 -a 0 -i 0 -k MAC
h -t 1.090569999 -s 1 -d -1 -p RTS -e 44 -c 2 -a 0 -i 0 -k MAC
+ -t 1.090662434 -s 7 -d -1 -p DSR -e 48 -c 2 -a 0 -i 7 -k RTR 
- -t 1.090662434 -s 7 -d -1 -p DSR -e 48 -c 2 -a 0 -i 7 -k RTR
h -t 1.090662434 -s 7 -d -1 -p DSR -e 48 -c 2 -a 0 -i 7 -k RTR
r -t 1.090922719 -s 0 -d -1 -p RTS -e 44 -c 2 -a 0 -i 0 -k MAC
+ -t 1.090932719 -s 0 -d -1 -p CTS -e 38 -c 2 -a 0 -i 0 -k MAC 
- -t 1.090932719 -s 0 -d -1 -p CTS -e 38 -c 2 -a 0 -i 0 -k MAC
h -t 1.090932719 -s 0 -d -1 -p CTS -e 38 -c 2 -a 0 -i 0 -k MAC
r -t 1.091237439 -s 1 -d -1 -p CTS -e 38 -c 2 -a 0 -i 0 -k MAC
+ -t 1.091247439 -s 1 -d -1 -p ARP -e 86 -c 2 -a 0 -i 0 -k MAC 
- -t 1.091247439 -s 1 -d -1 -p ARP -e 86 -c 2 -a 0 -i 0 -k MAC
h -t 1.091247439 -s 1 -d -1 -p ARP -e 86 -c 2 -a 0 -i 0 -k MAC
+ -t 1.091306128 -s 1 -d -1 -p DSR -e 48 -c 2 -a 0 -i 7 -k RTR 
- -t 1.091306128 -s 1 -d -1 -p DSR -e 48 -c 2 -a 0 -i 7 -k RTR
h -t 1.091306128 -s 1 -d -1 -p DSR -e 48 -c 2 -a 0 -i 7 -k RTR
r -t 1.091936160 -s 0 -d -1 -p ARP -e 28 -c 2 -a 0 -i 0 -k MAC
+ -t 1.091946160 -s 0 -d -1 -p ACK -e 38 -c 2 -a 0 -i 0 -k MAC 
- -t 1.091946160 -s 0 -d -1 -p ACK -e 38 -c 2 -a 0 -i 0 -k MAC
h -t 1.091946160 -s 0 -d -1 -p ACK -e 38 -c 2 -a 0 -i 0 -k MAC
r -t 1.092250880 -s 1 -d -1 -p ACK -e 38 -c 2 -a 0 -i 0 -k MAC
+ -t 1.092320787 -s 4 -d -1 -p DSR -e 106 -c 2 -a 0 -i 7 -k MAC 
- -t 1.092320787 -s 4 -d -1 -p DSR -e 106 -c 2 -a 0 -i 7 -k MAC
h -t 1.092320787 -s 4 -d -1 -p DSR -e 106 -c 2 -a 0 -i 7 -k MAC
r -t 1.093169202 -s 3 -d -1 -p DSR -e 48 -c 2 -a 0 -i 7 -k MAC
r -t 1.093169278 -s 1 -d -1 -p DSR -e 48 -c 2 -a 0 -i 7 -k MAC
r -t 1.093169281 -s 6 -d -1 -p DSR -e 48 -c 2 -a 0 -i 7 -k MAC
r -t 1.093169284 -s 5 -d -1 -p DSR -e 48 -c 2 -a 0 -i 7 -k MAC
r -t 1.093169415 -s 0 -d -1 -p DSR -e 48 -c 2 -a 0 -i 7 -k MAC
r -t 1.093169496 -s 2 -d -1 -p DSR -e 48 -c 2 -a 0 -i 7 -k MAC
+ -t 1.093194415 -s 0 -d 4 -p DSR -e 56 -c 2 -a 0 -i 12 -k RTR 
- -t 1.093194415 -s 0 -d 4 -p DSR -e 56 -c 2 -a 0 -i 12 -k RTR
h -t 1.093194415 -s 0 -d 4 -p DSR -e 56 -c 2 -a 0 -i 12 -k RTR
+ -t 1.093379284 -s 5 -d -1 -p DSR -e 106 -c 2 -a 0 -i 6 -k MAC 
- -t 1.093379284 -s 5 -d -1 -p DSR -e 106 -c 2 -a 0 -i 6 -k MAC
h -t 1.093379284 -s 5 -d -1 -p DSR -e 106 -c 2 -a 0 -i 6 -k MAC
r -t 1.094227522 -s 6 -d -1 -p DSR -e 48 -c 2 -a 0 -i 6 -k MAC
r -t 1.094227750 -s 7 -d -1 -p DSR -e 48 -c 2 -a 0 -i 6 -k MAC
r -t 1.094227780 -s 4 -d -1 -p DSR -e 48 -c 2 -a 0 -i 6 -k MAC
r -t 1.094227973 -s 2 -d -1 -p DSR -e 48 -c 2 -a 0 -i 6 -k MAC
r -t 1.094227985 -s 1 -d -1 -p DSR -e 48 -c 2 -a 0 -i 6 -k MAC
r -t 1.094228094 -s 3 -d -1 -p DSR -e 48 -c 2 -a 0 -i 6 -k MAC
+ -t 1.094437973 -s 2 -d -1 -p DSR -e 106 -c 2 -a 0 -i 7 -k MAC 
- -t 1.094437973 -s 2 -d -1 -p DSR -e 106 -c 2 -a 0 -i 7 -k MAC
h -t 1.094437973 -s 2 -d -1 -p DSR -e 106 -c 2 -a 0 -i 7 -k MAC
r -t 1.095286297 -s 1 -d -1 -p DSR -e 48 -c 2 -a 0 -i 7 -k MAC
r -t 1.095286424 -s 6 -d -1 -p DSR -e 48 -c 2 -a 0 -i 7 -k MAC
r -t 1.095286550 -s 7 -d -1 -p DSR -e 48 -c 2 -a 0 -i 7 -k MAC
r -t 1.095286661 -s 5 -d -1 -p DSR -e 48 -c 2 -a 0 -i 7 -k MAC
r -t 1.095286681 -s 4 -d -1 -p DSR -e 48 -c 2 -a 0 -i 7 -k MAC
+ -t 1.095536297 -s 1 -d -1 -p DSR -e 106 -c 2 -a 0 -i 7 -k MAC 
- -t 1.095536297 -s 1 -d -1 -p DSR -e 106 -c 2 -a 0 -i 7 -k MAC
h -t 1.095536297 -s 1 -d -1 -p DSR -e 106 -c 2 -a 0 -i 7 -k MAC
+ -t 1.095536681 -s 4 -d -1 -p ARP -e 86 -c 2 -a 0 -i 0 -k MAC 
- -t 1.095536681 -s 4 -d -1 -p ARP -e 86 -c 2 -a 0 -i 0 -k MAC
h -t 1.095536681 -s 4 -d -1 -p ARP -e 86 -c 2 -a 0 -i 0 -k MAC
d -t 1.095537175 -s 6 -d -1 -p ARP -e 86 -c 2 -a 0 -i 0 -k MAC
d -t 1.095537178 -s 5 -d -1 -p ARP -e 86 -c 2 -a 0 -i 0 -k MAC
d -t 1.095537309 -s 0 -d -1 -p ARP -e 86 -c 2 -a 0 -i 0 -k MAC
+ -t 1.095681989 -s 3 -d 4 -p DSR -e 52 -c 2 -a 0 -i 11 -k RTR 
- -t 1.095681989 -s 3 -d 4 -p DSR -e 52 -c 2 -a 0 -i 11 -k RTR
h -t 1.095681989 -s 3 -d 4 -p DSR -e 52 -c 2 -a 0 -i 11 -k RTR
r -t 1.096225096 -s 3 -d -1 -p ARP -e 28 -c 2 -a 0 -i 0 -k MAC
r -t 1.096384621 -s 2 -d -1 -p DSR -e 48 -c 2 -a 0 -i 7 -k MAC
d -t 1.096384809 -s 6 -d -1 -p DSR -e 106 -c 2 -a 0 -i 7 -k MAC
d -t 1.096384998 -s 5 -d -1 -p DSR -e 106 -c 2 -a 0 -i 7 -k MAC
d -t 1.096385017 -s 0 -d -1 -p DSR -e 106 -c 2 -a 0 -i 7 -k MAC
d -t 1.096385090 -s 7 -d -1 -p DSR -e 106 -c 2 -a 0 -i 7 -k MAC
+ -t 1.096799158 -s 3 -d -1 -p ARP -e 86 -c 2 -a 0 -i 0 -k MAC 
- -t 1.096799158 -s 3 -d -1 -p ARP -e 86 -c 2 -a 0 -i 0 -k MAC
h -t 1.096799158 -s 3 -d -1 -p ARP -e 86 -c 2 -a 0 -i 0 -k MAC
r -t 1.097487573 -s 4 -d -1 -p ARP -e 28 -c 2 -a 0 -i 0 -k MAC
r -t 1.097487746 -s 0 -d -1 -p ARP -e 28 -c 2 -a 0 -i 0 -k MAC
r -t 1.097487969 -s 5 -d -1 -p ARP -e 28 -c 2 -a 0 -i 0 -k MAC
+ -t 1.097537158 -s 3 -d -1 -p RTS -e 44 -c 2 -a 0 -i 0 -k MAC 
- -t 1.097537158 -s 3 -d -1 -p RTS -e 44 -c 2 -a 0 -i 0 -k MAC
h -t 1.097537158 -s 3 -d -1 -p RTS -e 44 -c 2 -a 0 -i 0 -k MAC
r -t 1.097889573 -s 4 -d -1 -p RTS -e 44 -c 2 -a 0 -i 0 -k MAC
+ -t 1.097899573 -s 4 -d -1 -p CTS -e 38 -c 2 -a 0 -i 0 -k MAC 
- -t 1.097899573 -s 4 -d -1 -p CTS -e 38 -c 2 -a 0 -i 0 -k MAC
h -t 1.097899573 -s 4 -d -1 -p CTS -e 38 -c 2 -a 0 -i 0 -k MAC
r -t 1.098203988 -s 3 -d -1 -p CTS -e 38 -c 2 -a 0 -i 0 -k MAC
+ -t 1.098213988 -s 3 -d 4 -p DSR -e 110 -c 2 -a 0 -i 11 -k MAC 
- -t 1.098213988 -s 3 -d 4 -p DSR -e 110 -c 2 -a 0 -i 11 -k MAC
h -t 1.098213988 -s 3 -d 4 -p DSR -e 110 -c 2 -a 0 -i 11 -k MAC
r -t 1.099094403 -s 4 -d 4 -p DSR -e 52 -c 2 -a 0 -i 11 -k MAC
+ -t 1.099104403 -s 4 -d -1 -p ACK -e 38 -c 2 -a 0 -i 0 -k MAC 
- -t 1.099104403 -s 4 -d -1 -p ACK -e 38 -c 2 -a 0 -i 0 -k MAC
h -t 1.099104403 -s 4 -d -1 -p ACK -e 38 -c 2 -a 0 -i 0 -k MAC
+ -t 1.099119403 -s 4 -d 6 -p DSR -e 52 -c 2 -a 0 -i 11 -k RTR 
- -t 1.099119403 -s 4 -d 6 -p DSR -e 52 -c 2 -a 0 -i 11 -k RTR
h -t 1.099119403 -s 4 -d 6 -p DSR -e 52 -c 2 -a 0 -i 11 -k RTR
r -t 1.099408817 -s 3 -d -1 -p ACK -e 38 -c 2 -a 0 -i 0 -k MAC
+ -t 1.099538899 -s 5 -d -1 -p DSR -e 106 -c 2 -a 0 -i 7 -k MAC 
- -t 1.099538899 -s 5 -d -1 -p DSR -e 106 -c 2 -a 0 -i 7 -k MAC
h -t 1.099538899 -s 5 -d -1 -p DSR -e 106 -c 2 -a 0 -i 7 -k MAC
r -t 1.100387137 -s 6 -d -1 -p DSR -e 48 -c 2 -a 0 -i 7 -k MAC
r -t 1.100387366 -s 7 -d -1 -p DSR -e 48 -c 2 -a 0 -i 7 -k MAC
r -t 1.100387396 -s 4 -d -1 -p DSR -e 48 -c 2 -a 0 -i 7 -k MAC
r -t 1.100387588 -s 2 -d -1 -p DSR -e 48 -c 2 -a 0 -i 7 -k MAC
r -t 1.100387600 -s 1 -d -1 -p DSR -e 48 -c 2 -a 0 -i 7 -k MAC
r -t 1.100387709 -s 3 -d -1 -p DSR -e 48 -c 2 -a 0 -i 7 -k MAC
+ -t 1.100457366 -s 7 -d -1 -p DSR -e 106 -c 2 -a 0 -i 7 -k MAC 
- -t 1.100457366 -s 7 -d -1 -p DSR -e 106 -c 2 -a 0 -i 7 -k MAC
h -t 1.100457366 -s 7 -d -1 -p DSR -e 106 -c 2 -a 0 -i 7 -k MAC
r -t 1.101305736 -s 6 -d -1 -p DSR -e 48 -c 2 -a 0 -i 7 -k MAC
r -t 1.101305832 -s 5 -d -1 -p DSR -e 48 -c 2 -a 0 -i 7 -k MAC
r -t 1.101305943 -s 2 -d -1 -p DSR -e 48 -c 2 -a 0 -i 7 -k MAC
r -t 1.101306159 -s 1 -d -1 -p DSR -e 48 -c 2 -a 0 -i 7 -k MAC
+ -t 1.101740787 -s 0 -d -1 -p ARP -e 86 -c 2 -a 0 -i 0 -k MAC 
- -t 1.101740787 -s 0 -d -1 -p ARP -e 86 -c 2 -a 0 -i 0 -k MAC
h -t 1.101740787 -s 0 -d -1 -p ARP -e 86 -c 2 -a 0 -i 0 -k MAC
r -t 1.102429374 -s 3 -d -1 -p ARP -e 28 -c 2 -a 0 -i 0 -k MAC
r -t 1.102429414 -s 4 -d -1 -p ARP -e 28 -c 2 -a 0 -i 0 -k MAC
r -t 1.102429507 -s 1 -d -1 -p ARP -e 28 -c 2 -a 0 -i 0 -k MAC
+ -t 1.102618787 -s 0 -d -1 -p RTS -e 44 -c 2 -a 0 -i 0 -k MAC 
- -t 1.102618787 -s 0 -d -1 -p RTS -e 44 -c 2 -a 0 -i 0 -k MAC
h -t 1.102618787 -s 0 -d -1 -p RTS -e 44 -c 2 -a 0 -i 0 -k MAC
r -t 1.102971374 -s 3 -d -1 -p RTS -e 44 -c 2 -a 0 -i 0 -k MAC
+ -t 1.102981374 -s 3 -d -1 -p CTS -e 38 -c 2 -a 0 -i 0 -k MAC 
- -t 1.102981374 -s 3 -d -1 -p CTS -e 38 -c 2 -a 0 -i 0 -k MAC
h -t 1.102981374 -s 3 -d -1 -p CTS -e 38 -c 2 -a 0 -i 0 -k MAC
r -t 1.103285962 -s 0 -d -1 -p CTS -e 38 -c 2 -a 0 -i 0 -k MAC
+ -t 1.103295962 -s 0 -d 3 -p DSR -e 118 -c 2 -a 0 -i 10 -k MAC 
- -t 1.103295962 -s 0 -d 3 -p DSR -e 118 -c 2 -a 0 -i 10 -k MAC
h -t 1.103295962 -s 0 -d 3 -p DSR -e 118 -c 2 -a 0 -i 10 -k MAC
+ -t 1.103819833 -s 3 -d 5 -p DSR -e 52 -c 2 -a 0 -i 14 -k RTR 
- -t 1.103819833 -s 3 -d 5 -p DSR -e 52 -c 2 -a 0 -i 14 -k RTR
h -t 1.103819833 -s 3 -d 5 -p DSR -e 52 -c 2 -a 0 -i 14 -k RTR
r -t 1.104240550 -s 3 -d 3 -p DSR -e 60 -c 2 -a 0 -i 10 -k MAC
+ -t 1.104250550 -s 3 -d -1 -p ACK -e 38 -c 2 -a 0 -i 0 -k MAC 
- -t 1.104250550 -s 3 -d -1 -p ACK -e 38 -c 2 -a 0 -i 0 -k MAC
h -t 1.104250550 -s 3 -d -1 -p ACK -e 38 -c 2 -a 0 -i 0 -k MAC
+ -t 1.104265550 -s 3 -d 4 -p DSR -e 60 -c 2 -a 0 -i 10 -k RTR 
- -t 1.104265550 -s 3 -d 4 -p DSR -e 60 -c 2 -a 0 -i 10 -k RTR
h -t 1.104265550 -s 3 -d 4 -p DSR -e 60 -c 2 -a 0 -i 10 -k RTR
r -t 1.104555138 -s 0 -d -1 -p ACK -e 38 -c 2 -a 0 -i 0 -k MAC
+ -t 1.104764965 -s 4 -d -1 -p RTS -e 44 -c 2 -a 0 -i 0 -k MAC 
- -t 1.104764965 -s 4 -d -1 -p RTS -e 44 -c 2 -a 0 -i 0 -k MAC
h -t 1.104764965 -s 4 -d -1 -p RTS -e 44 -c 2 -a 0 -i 0 -k MAC
r -t 1.105117379 -s 3 -d -1 -p RTS -e 44 -c 2 -a 0 -i 0 -k MAC
+ -t 1.105127379 -s 3 -d -1 -p CTS -e 38 -c 2 -a 0 -i 0 -k MAC 
- -t 1.105127379 -s 3 -d -1 -p CTS -e 38 -c 2 -a 0 -i 0 -k MAC
h -t 1.105127379 -s 3 -d -1 -p CTS -e 38 -c 2 -a 0 -i 0 -k MAC
r -t 1.105431794 -s 4 -d -1 -p CTS -e 38 -c 2 -a 0 -i 0 -k MAC
+ -t 1.105441794 -s 4 -d -1 -p ARP -e 86 -c 2 -a 0 -i 0 -k MAC 
- -t 1.105441794 -s 4 -d -1 -p ARP -e 86 -c 2 -a 0 -i 0 -k MAC
h -t 1.105441794 -s 4 -d -1 -p ARP -e 86 -c 2 -a 0 -i 0 -k MAC
r -t 1.106130209 -s 3 -d -1 -p ARP -e 28 -c 2 -a 0 -i 0 -k MAC
+ -t 1.106140209 -s 3 -d -1 -p ACK -e 38 -c 2 -a 0 -i 0 -k MAC 
- -t 1.106140209 -s 3 -d -1 -p ACK -e 38 -c 2 -a 0 -i 0 -k MAC
h -t 1.106140209 -s 3 -d -1 -p ACK -e 38 -c 2 -a 0 -i 0 -k MAC
r -t 1.106444623 -s 4 -d -1 -p ACK -e 38 -c 2 -a 0 -i 0 -k MAC
+ -t 1.106574209 -s 3 -d -1 -p RTS -e 44 -c 2 -a 0 -i 0 -k MAC 
- -t 1.106574209 -s 3 -d -1 -p RTS -e 44 -c 2 -a 0 -i 0 -k MAC
h -t 1.106574209 -s 3 -d -1 -p RTS -e 44 -c 2 -a 0 -i 0 -k MAC
r -t 1.106926796 -s 0 -d -1 -p RTS -e 44 -c 2 -a 0 -i 0 -k MAC
+ -t 1.106936796 -s 0 -d -1 -p CTS -e 38 -c 2 -a 0 -i 0 -k MAC 
- -t 1.106936796 -s 0 -d -1 -p CTS -e 38 -c 2 -a 0 -i 0 -k MAC
h -t 1.106936796 -s 0 -d -1 -p CTS -e 38 -c 2 -a 0 -i 0 -k MAC
r -t 1.107241384 -s 3 -d -1 -p CTS -e 38 -c 2 -a 0 -i 0 -k MAC
+ -t 1.107251384 -s 3 -d -1 -p ARP -e 86 -c 2 -a 0 -i 0 -k MAC 
- -t 1.107251384 -s 3 -d -1 -p ARP -e 86 -c 2 -a 0 -i 0 -k MAC
h -t 1.107251384 -s 3 -d -1 -p ARP -e 86 -c 2 -a 0 -i 0 -k MAC
r -t 1.107939972 -s 0 -d -1 -p ARP -e 28 -c 2 -a 0 -i 0 -k MAC
+ -t 1.107949972 -s 0 -d -1 -p ACK -e 38 -c 2 -a 0 -i 0 -k MAC 
- -t 1.107949972 -s 0 -d -1 -p ACK -e 38 -c 2 -a 0 -i 0 -k MAC
h -t 1.107949972 -s 0 -d -1 -p ACK -e 38 -c 2 -a 0 -i 0 -k MAC
r -t 1.108254560 -s 3 -d -1 -p ACK -e 38 -c 2 -a 0 -i 0 -k MAC
+ -t 1.108363972 -s 0 -d -1 -p RTS -e 44 -c 2 -a 0 -i 0 -k MAC 
- -t 1.108363972 -s 0 -d -1 -p RTS -e 44 -c 2 -a 0 -i 0 -k MAC
h -t 1.108363972 -s 0 -d -1 -p RTS -e 44 -c 2 -a 0 -i 0 -k MAC
r -t 1.108716599 -s 4 -d -1 -p RTS -e 44 -c 2 -a 0 -i 0 -k MAC
+ -t 1.108726599 -s 4 -d -1 -p CTS -e 38 -c 2 -a 0 -i 0 -k MAC 
- -t 1.108726599 -s 4 -d -1 -p CTS -e 38 -c 2 -a 0 -i 0 -k MAC
h -t 1.108726599 -s 4 -d -1 -p CTS -e 38 -c 2 -a 0 -i 0 -k MAC
r -t 1.109031227 -s 0 -d -1 -p CTS -e 38 -c 2 -a 0 -i 0 -k MAC
+ -t 1.109041227 -s 0 -d 4 -p DSR -e 114 -c 2 -a 0 -i 12 -k MAC 
- -t 1.109041227 -s 0 -d 4 -p DSR -e 114 -c 2 -a 0 -i 12 -k MAC
h -t 1.109041227 -s 0 -d 4 -p DSR -e 114 -c 2 -a 0 -i 12 -k MAC
r -t 1.109953854 -s 4 -d 4 -p DSR -e 56 -c 2 -a 0 -i 12 -k MAC
+ -t 1.109963854 -s 4 -d -1 -p ACK -e 38 -c 2 -a 0 -i 0 -k MAC 
- -t 1.109963854 -s 4 -d -1 -p ACK -e 38 -c 2 -a 0 -i 0 -k MAC
h -t 1.109963854 -s 4 -d -1 -p ACK -e 38 -c 2 -a 0 -i 0 -k MAC
+ -t 1.109978854 -s 4 -d 6 -p DSR -e 56 -c 2 -a 0 -i 12 -k RTR 
- -t 1.109978854 -s 4 -d 6 -p DSR -e 56 -c 2 -a 0 -i 12 -k RTR
h -t 1.109978854 -s 4 -d 6 -p DSR -e 56 -c 2 -a 0 -i 12 -k RTR
d -t 1.109978854 -s 4 -d 6 -p DSR -e 52 -c 2 -a 0 -i 11 -k IFQ
r -t 1.110268482 -s 0 -d -1 -p ACK -e 38 -c 2 -a 0 -i 0 -k MAC
+ -t 1.110358269 -s 3 -d -1 -p RTS -e 44 -c 2 -a 0 -i 0 -k MAC 
- -t 1.110358269 -s 3 -d -1 -p RTS -e 44 -c 2 -a 0 -i 0 -k MAC
h -t 1.110358269 -s 3 -d -1 -p RTS -e 44 -c 2 -a 0 -i 0 -k MAC
r -t 1.110710684 -s 4 -d -1 -p RTS -e 44 -c 2 -a 0 -i 0 -k MAC
+ -t 1.110720684 -s 4 -d -1 -p CTS -e 38 -c 2 -a 0 -i 0 -k MAC 
- -t 1.110720684 -s 4 -d -1 -p CTS -e 38 -c 2 -a 0 -i 0 -k MAC
h -t 1.110720684 -s 4 -d -1 -p CTS -e 38 -c 2 -a 0 -i 0 -k MAC
r -t 1.111025098 -s 3 -d -1 -p CTS -e 38 -c 2 -a 0 -i 0 -k MAC
+ -t 1.111035098 -s 3 -d 4 -p DSR -e 118 -c 2 -a 0 -i 10 -k MAC 
- -t 1.111035098 -s 3 -d 4 -p DSR -e 118 -c 2 -a 0 -i 10 -k MAC
h -t 1.111035098 -s 3 -d 4 -p DSR -e 118 -c 2 -a 0 -i 10 -k MAC
r -t 1.111979513 -s 4 -d 4 -p DSR -e 60 -c 2 -a 0 -i 10 -k MAC
+ -t 1.111989513 -s 4 -d -1 -p ACK -e 38 -c 2 -a 0 -i 0 -k MAC 
- -t 1.111989513 -s 4 -d -1 -p ACK -e 38 -c 2 -a 0 -i 0 -k MAC
h -t 1.111989513 -s 4 -d -1 -p ACK -e 38 -c 2 -a 0 -i 0 -k MAC
+ -t 1.112004513 -s 4 -d 2 -p DSR -e 60 -c 2 -a 0 -i 10 -k RTR 
- -t 1.112004513 -s 4 -d 2 -p DSR -e 60 -c 2 -a 0 -i 10 -k RTR
h -t 1.112004513 -s 4 -d 2 -p DSR -e 60 -c 2 -a 0 -i 10 -k RTR
d -t 1.112004513 -s 4 -d 2 -p DSR -e 52 -c 2 -a 0 -i 9 -k IFQ
r -t 1.112293928 -s 3 -d -1 -p ACK -e 38 -c 2 -a 0 -i 0 -k MAC
+ -t 1.112403513 -s 4 -d -1 -p ARP -e 86 -c 2 -a 0 -i 0 -k MAC 
- -t 1.112403513 -s 4 -d -1 -p ARP -e 86 -c 2 -a 0 -i 0 -k MAC
h -t 1.112403513 -s 4 -d -1 -p ARP -e 86 -c 2 -a 0 -i 0 -k MAC
r -t 1.113091928 -s 3 -d -1 -p ARP -e 28 -c 2 -a 0 -i 0 -k MAC
r -t 1.113092004 -s 1 -d -1 -p ARP -e 28 -c 2 -a 0 -i 0 -k MAC
r -t 1.113092007 -s 6 -d -1 -p ARP -e 28 -c 2 -a 0 -i 0 -k MAC
r -t 1.113092010 -s 5 -d -1 -p ARP -e 28 -c 2 -a 0 -i 0 -k MAC
r -t 1.113092140 -s 0 -d -1 -p ARP -e 28 -c 2 -a 0 -i 0 -k MAC
r -t 1.113092222 -s 2 -d -1 -p ARP -e 28 -c 2 -a 0 -i 0 -k MAC
+ -t 1.113202140 -s 0 -d -1 -p RTS -e 44 -c 2 -a 0 -i 0 -k MAC 
- -t 1.113202140 -s 0 -d -1 -p RTS -e 44 -c 2 -a 0 -i 0 -k MAC
h -t 1.113202140 -s 0 -d -1 -p RTS -e 44 -c 2 -a 0 -i 0 -k MAC
r -t 1.113554861 -s 1 -d -1 -p RTS -e 44 -c 2 -a 0 -i 0 -k MAC
+ -t 1.113564861 -s 1 -d -1 -p CTS -e 38 -c 2 -a 0 -i 0 -k MAC 
- -t 1.113564861 -s 1 -d -1 -p CTS -e 38 -c 2 -a 0 -i 0 -k MAC
h -t 1.113564861 -s 1 -d -1 -p CTS -e 38 -c 2 -a 0 -i 0 -k MAC
r -t 1.113869581 -s 0 -d -1 -p CTS -e 38 -c 2 -a 0 -i 0 -k MAC
+ -t 1.113879581 -s 0 -d 1 -p DSR -e 110 -c 2 -a 0 -i 8 -k MAC 
- -t 1.113879581 -s 0 -d 1 -p DSR -e 110 -c 2 -a 0 -i 8 -k MAC
h -t 1.113879581 -s 0 -d 1 -p DSR -e 110 -c 2 -a 0 -i 8 -k MAC
r -t 1.114760302 -s 1 -d 1 -p DSR -e 52 -c 2 -a 0 -i 8 -k MAC
+ -t 1.114770302 -s 1 -d -1 -p ACK -e 38 -c 2 -a 0 -i 0 -k MAC 
- -t 1.114770302 -s 1 -d -1 -p ACK -e 38 -c 2 -a 0 -i 0 -k MAC
h -t 1.114770302 -s 1 -d -1 -p ACK -e 38 -c 2 -a 0 -i 0 -k MAC
+ -t 1.114785302 -s 1 -d 2 -p DSR -e 52 -c 2 -a 0 -i 8 -k RTR 
- -t 1.114785302 -s 1 -d 2 -p DSR -e 52 -c 2 -a 0 -i 8 -k RTR
h -t 1.114785302 -s 1 -d 2 -p DSR -e 52 -c 2 -a 0 -i 8 -k RTR
r -t 1.115075022 -s 0 -d -1 -p ACK -e 38 -c 2 -a 0 -i 0 -k MAC
+ -t 1.115434642 -s 6 -d -1 -p RTS -e 44 -c 2 -a 0 -i 0 -k MAC 
- -t 1.115434642 -s 6 -d -1 -p RTS -e 44 -c 2 -a 0 -i 0 -k MAC
h -t 1.115434642 -s 6 -d -1 -p RTS -e 44 -c 2 -a 0 -i 0 -k MAC
r -t 1.115787135 -s 4 -d -1 -p RTS -e 44 -c 2 -a 0 -i 0 -k MAC
+ -t 1.115797135 -s 4 -d -1 -p CTS -e 38 -c 2 -a 0 -i 0 -k MAC 
- -t 1.115797135 -s 4 -d -1 -p CTS -e 38 -c 2 -a 0 -i 0 -k MAC
h -t 1.115797135 -s 4 -d -1 -p CTS -e 38 -c 2 -a 0 -i 0 -k MAC
r -t 1.116101629 -s 6 -d -1 -p CTS -e 38 -c 2 -a 0 -i 0 -k MAC
+ -t 1.116111629 -s 6 -d -1 -p ARP -e 86 -c 2 -a 0 -i 0 -k MAC 
- -t 1.116111629 -s 6 -d -1 -p ARP -e 86 -c 2 -a 0 -i 0 -k MAC
h -t 1.116111629 -s 6 -d -1 -p ARP -e 86 -c 2 -a 0 -i 0 -k MAC
r -t 1.116800123 -s 4 -d -1 -p ARP -e 28 -c 2 -a 0 -i 0 -k MAC
+ -t 1.116810123 -s 4 -d -1 -p ACK -e 38 -c 2 -a 0 -i 0 -k MAC 
- -t 1.116810123 -s 4 -d -1 -p ACK -e 38 -c 2 -a 0 -i 0 -k MAC
h -t 1.116810123 -s 4 -d -1 -p ACK -e 38 -c 2 -a 0 -i 0 -k MAC
r -t 1.117114616 -s 6 -d -1 -p ACK -e 38 -c 2 -a 0 -i 0 -k MAC
+ -t 1.117184123 -s 4 -d -1 -p ARP -e 86 -c 2 -a 0 -i 0 -k MAC 
- -t 1.117184123 -s 4 -d -1 -p ARP -e 86 -c 2 -a 0 -i 0 -k MAC
h -t 1.117184123 -s 4 -d -1 -p ARP -e 86 -c 2 -a 0 -i 0 -k MAC
r -t 1.117872537 -s 3 -d -1 -p ARP -e 28 -c 2 -a 0 -i 0 -k MAC
r -t 1.117872613 -s 1 -d -1 -p ARP -e 28 -c 2 -a 0 -i 0 -k MAC
r -t 1.117872616 -s 6 -d -1 -p ARP -e 28 -c 2 -a 0 -i 0 -k MAC
r -t 1.117872619 -s 5 -d -1 -p ARP -e 28 -c 2 -a 0 -i 0 -k MAC
r -t 1.117872750 -s 0 -d -1 -p ARP -e 28 -c 2 -a 0 -i 0 -k MAC
r -t 1.117872831 -s 2 -d -1 -p ARP -e 28 -c 2 -a 0 -i 0 -k MAC
+ -t 1.118042613 -s 1 -d -1 -p ARP -e 86 -c 2 -a 0 -i 0 -k MAC 
- -t 1.118042613 -s 1 -d -1 -p ARP -e 86 -c 2 -a 0 -i 0 -k MAC
h -t 1.118042613 -s 1 -d -1 -p ARP -e 86 -c 2 -a 0 -i 0 -k MAC
r -t 1.118730937 -s 2 -d -1 -p ARP -e 28 -c 2 -a 0 -i 0 -k MAC
r -t 1.118731104 -s 4 -d -1 -p ARP -e 28 -c 2 -a 0 -i 0 -k MAC
r -t 1.118731125 -s 6 -d -1 -p ARP -e 28 -c 2 -a 0 -i 0 -k MAC
r -t 1.118731314 -s 5 -d -1 -p ARP -e 28 -c 2 -a 0 -i 0 -k MAC
r -t 1.118731334 -s 0 -d -1 -p ARP -e 28 -c 2 -a 0 -i 0 -k MAC
r -t 1.118731407 -s 7 -d -1 -p ARP -e 28 -c 2 -a 0 -i 0 -k MAC
+ -t 1.118861104 -s 4 -d -1 -p RTS -e 44 -c 2 -a 0 -i 0 -k MAC 
- -t 1.118861104 -s 4 -d -1 -p RTS -e 44 -c 2 -a 0 -i 0 -k MAC
h -t 1.118861104 -s 4 -d -1 -p RTS -e 44 -c 2 -a 0 -i 0 -k MAC
r -t 1.119213597 -s 6 -d -1 -p RTS -e 44 -c 2 -a 0 -i 0 -k MAC
+ -t 1.119223597 -s 6 -d -1 -p CTS -e 38 -c 2 -a 0 -i 0 -k MAC 
- -t 1.119223597 -s 6 -d -1 -p CTS -e 38 -c 2 -a 0 -i 0 -k MAC
h -t 1.119223597 -s 6 -d -1 -p CTS -e 38 -c 2 -a 0 -i 0 -k MAC
r -t 1.119528091 -s 4 -d -1 -p CTS -e 38 -c 2 -a 0 -i 0 -k MAC
+ -t 1.119538091 -s 4 -d 6 -p DSR -e 114 -c 2 -a 0 -i 12 -k MAC 
- -t 1.119538091 -s 4 -d 6 -p DSR -e 114 -c 2 -a 0 -i 12 -k MAC
h -t 1.119538091 -s 4 -d 6 -p DSR -e 114 -c 2 -a 0 -i 12 -k MAC
r -t 1.120450585 -s 6 -d 6 -p DSR -e 56 -c 2 -a 0 -i 12 -k MAC
+ -t 1.120460585 -s 6 -d -1 -p ACK -e 38 -c 2 -a 0 -i 0 -k MAC 
- -t 1.120460585 -s 6 -d -1 -p ACK -e 38 -c 2 -a 0 -i 0 -k MAC
h -t 1.120460585 -s 6 -d -1 -p ACK -e 38 -c 2 -a 0 -i 0 -k MAC
+ -t 1.120475585 -s 6 -d 4 -p tcp -e 84 -c 2 -a 0 -i 2 -k RTR 
- -t 1.120475585 -s 6 -d 4 -p tcp -e 84 -c 2 -a 0 -i 2 -k RTR
h -t 1.120475585 -s 6 -d 4 -p tcp -e 84 -c 2 -a 0 -i 2 -k RTR
r -t 1.120765078 -s 4 -d -1 -p ACK -e 38 -c 2 -a 0 -i 0 -k MAC
+ -t 1.120874585 -s 6 -d -1 -p RTS -e 44 -c 2 -a 0 -i 0 -k MAC 